14
Lattice="5.5437171645025325 0.0 0.0 2.7718585822512662 4.800999895855028 0.0 0.0 0.0 24.526426110446664" Properties=species:S:1:pos:R:3:move_mask:L:1:tags:I:1:initial_magmoms:R:1:energies:R:1:forces:R:3 energy=4.7148025228172585 free_energy=4.7148025228172585 stress="0.012982733515255347 -1.7201594159514793e-17 2.0256462979230498e-17 -1.7201594159514793e-17 0.0134858582138272 -0.0004589844099908458 2.0256462979230498e-17 -0.0004589844099908458 0.004421100343231464" pbc="T T F"
Pt       1.38592929       0.80016665      10.00000000  F        3       0.00000000       0.31959530       0.00000000       0.00032589       0.31950820
Pt       4.15778787       0.80016665      10.00000000  F        3       0.00000000       0.31961669      -0.00000000       0.00005614       0.31981821
Pt       2.77185858       3.20066660      10.00000000  F        3       0.00000000       0.31961350      -0.00023392      -0.00003051       0.31948708
Pt       5.54371716       3.20066660      10.00000000  F        3       0.00000000       0.31961350       0.00023392      -0.00003051       0.31948708
Pt      -0.00000000       1.60033330      12.26321306  F        2       0.00000000       0.01078640      -0.00735383      -0.02962606      -0.31310639
Pt       2.77185858       1.60033330      12.26321306  F        2       0.00000000       0.01078640       0.00735383      -0.02962606      -0.31310639
Pt       1.38592929       4.00083325      12.26321306  F        2       0.00000000       0.01100915       0.00000000      -0.03298175      -0.31698366
Pt       4.15778787       4.00083325      12.26321306  F        2       0.00000000       0.01133455       0.00000000      -0.04422559      -0.32099461
Pt       0.00313670      -0.03416998      14.46619342  T        1       0.00000000       0.29842345      -0.02677587       0.03034294       0.00052384
Pt       2.76872188      -0.03416998      14.46619342  T        1       0.00000000       0.29842345       0.02677587       0.03034294       0.00052384
Pt       1.38592929       2.36504861      14.46651748  T        1       0.00000000       0.30146619       0.00000000       0.04615724       0.00388050
Pt       4.15778787       2.36562759      14.47176354  T        1       0.00000000       0.30261430      -0.00000000       0.02927198      -0.03104366
O        1.38592929      -0.00037508      18.78617580  T        0       0.50000000       1.33017390       0.00000000       0.00017162      -0.00109529
H        1.38592929      -0.01771038      17.75180135  T        0       0.50000000       0.86134574      -0.00000000      -0.00014829       0.01310127
