14
Lattice="5.5437171645025325 0.0 0.0 2.7718585822512662 4.800999895855028 0.0 0.0 0.0 24.526426110446664" Properties=species:S:1:pos:R:3:move_mask:L:1:tags:I:1:initial_magmoms:R:1:energies:R:1:forces:R:3 energy=4.7123518166136495 free_energy=4.7123518166136495 stress="0.01312856683292874 2.183374463900279e-17 -1.3691922156244132e-17 2.183374463900279e-17 0.013128566832928892 -5.078479236259971e-17 -1.3691922156244132e-17 -5.078479236259971e-17 0.004240851344699755" pbc="T T F"
Pt       1.38592929       0.80016665      10.00000000  F        3       0.00000000       0.31960395       0.00000000      -0.00000000       0.31784618
Pt       4.15778787       0.80016665      10.00000000  F        3       0.00000000       0.31959603      -0.00000000      -0.00052595       0.31857641
Pt       2.77185858       3.20066660      10.00000000  F        3       0.00000000       0.31959603      -0.00045549       0.00026297       0.31857641
Pt       5.54371716       3.20066660      10.00000000  F        3       0.00000000       0.31959603       0.00045549       0.00026297       0.31857641
Pt      -0.00000000       1.60033330      12.26321306  F        2       0.00000000       0.01122441       0.00713962      -0.00412206      -0.32723987
Pt       2.77185858       1.60033330      12.26321306  F        2       0.00000000       0.01122441      -0.00713962      -0.00412206      -0.32723987
Pt       1.38592929       4.00083325      12.26321306  F        2       0.00000000       0.01024893      -0.00000000       0.00000000      -0.31006939
Pt       4.15778787       4.00083325      12.26321306  F        2       0.00000000       0.01122441       0.00000000       0.00824412      -0.32723987
Pt       0.00091735       0.00052963      14.46741529  T        1       0.00000000       0.29909453      -0.01042169      -0.00601696      -0.00911549
Pt       2.77094124       0.00052963      14.46741529  T        1       0.00000000       0.29909453       0.01042169      -0.00601696      -0.00911549
Pt       1.38592929       2.39944069      14.46741529  T        1       0.00000000       0.29909453      -0.00000000       0.01203393      -0.00911549
Pt       4.15778787       2.40049995      14.46193272  T        1       0.00000000       0.30071685       0.00000000       0.00000000       0.03504442
O        1.38592929       0.80016665      18.75751835  T        0       0.50000000       1.32523610       0.00000000      -0.00000000       0.03853371
H        1.38592929       0.80016665      17.72387235  T        0       0.50000000       0.86680107      -0.00000000       0.00000000      -0.02801806
