14
Lattice="5.5437171645025325 0.0 0.0 2.7718585822512662 4.800999895855028 0.0 0.0 0.0 24.526426110446664" Properties=species:S:1:pos:R:3:move_mask:L:1:tags:I:1:initial_magmoms:R:1:energies:R:1:forces:R:3 energy=4.710435246746155 free_energy=4.710435246746155 stress="0.012969026742972293 -1.4476772041017634e-17 -7.956285731853375e-17 -1.4476772041017634e-17 0.012969026742984202 -1.0851715752763974e-14 -7.956285731853375e-17 -1.0851715752763974e-14 0.0040700986193447485" pbc="T T F"
Pt       1.38592929       0.80016665      10.00000000  F        3       0.00000000       0.31958310       0.00007865       0.00004541       0.31663823
Pt       4.15778787       0.80016665      10.00000000  F        3       0.00000000       0.31958310      -0.00007865       0.00004541       0.31663823
Pt       2.77185858       3.20066660      10.00000000  F        3       0.00000000       0.31958310      -0.00000000      -0.00009082       0.31663823
Pt       5.54371716       3.20066660      10.00000000  F        3       0.00000000       0.31957636       0.00000000      -0.00000000       0.31653427
Pt      -0.00000000       1.60033330      12.26321306  F        2       0.00000000       0.01146716      -0.00000000      -0.00277568      -0.33700811
Pt       2.77185858       1.60033330      12.26321306  F        2       0.00000000       0.01139905       0.00000000      -0.00000000      -0.33589016
Pt       1.38592929       4.00083325      12.26321306  F        2       0.00000000       0.01146716       0.00240381       0.00138784      -0.33700811
Pt       4.15778787       4.00083325      12.26321306  F        2       0.00000000       0.01146716      -0.00240381       0.00138784      -0.33700811
Pt       0.00000000      -0.00000000      14.46505490  T        1       0.00000000       0.30011916      -0.00000000       0.00000000       0.00983998
Pt       2.77185858      -0.00096914      14.46350201  T        1       0.00000000       0.30132199       0.00000000       0.00826549       0.02259929
Pt       1.38508999       2.40098452      14.46350201  T        1       0.00000000       0.30132199       0.00715812      -0.00413274       0.02259929
Pt       4.15862718       2.40098452      14.46350201  T        1       0.00000000       0.30132199      -0.00715812      -0.00413274       0.02259929
O       -0.00000000       0.00000000      19.32133149  T        0       0.50000000       1.32169098       0.00000000      -0.00000000       0.02081131
H       -0.00000000       0.00000000      18.28903932  T        0       0.50000000       0.86053295      -0.00000000       0.00000000      -0.01798359
