32
Lattice="7.2 0.0 0.0 0.0 7.2 0.0 0.0 0.0 7.2" Properties=species:S:1:pos:R:3:momenta:R:3:energies:R:1:forces:R:3 energy=0.9981375878473759 free_energy=0.9981375878473759 stress="-0.004635380036163236 0.000271578200147907 0.00047097389897933045 0.000271578200147907 -0.006743634179809348 0.0005354766620631385 0.00047097389897933045 0.0005354766620631385 -0.0046591825586368" pbc="T T T"
Cu      -0.01093939       0.14733072       0.07581057      -0.92512040      -0.93498751      -0.09200334       0.06383007       0.12093271      -1.09838451      -0.53788835
Cu       0.02528820       1.95241609       1.65453456      -2.14522300      -1.10901485      -1.15474861       0.07788784       0.52119119      -0.48519917       1.27691166
Cu       1.74932048       0.00716612       1.71541162       1.08028410      -0.55532835       0.30176222       0.03149044       0.19424826      -0.24056217       0.55272422
Cu       1.84413606       1.80965224      -0.14917350       1.28606531      -0.41816033      -0.34135419       0.01338650      -0.20851700       0.23429048       0.44758529
Cu      -0.11979756      -0.01603611       3.67099417      -0.02625841       0.61192345       0.23689231       0.05832141       0.58893523      -0.03135511      -1.09525384
Cu       0.00526193       1.80512446       5.31471343       0.68628751       1.29372986       0.84784271       0.02257184       0.13108609       0.45667888       0.45653274
Cu       1.69176147      -0.09192930       5.35477081       2.30029610      -1.66906708       1.61729955       0.04261947       0.73950778       0.40800479       0.48510959
Cu       1.80026438       1.65767896       3.58896529       0.90600417      -1.09974757      -0.13796875       0.02728630      -0.24521477       0.87817545       0.01843439
Cu      -0.04799352       3.68767803       0.01113812      -0.94283667      -0.94536608       1.76565070       0.05276821       0.08012787      -0.44516300      -0.17376670
Cu       0.09832509       5.36516567       1.84503926       1.29297700      -0.61117353      -0.63419573       0.03170548      -0.70023543       0.54233281      -0.28294838
Cu       1.90511710       3.65952841       1.80239395      -0.84387742      -0.32758327      -0.58163323       0.02488579      -0.07706740      -0.59554138      -0.00286401
Cu       1.75935640       5.29823744      -0.02951209       1.15628160       0.91408640       1.16062973       0.04581764       0.49010948       0.84749193       0.22122600
Cu       0.07594463       3.66195348       3.51992063      -2.39160683      -0.86232173       0.85239333       0.02785572      -0.40820334      -0.47895381       0.72910792
Cu      -0.07778162       5.51701946       5.48496176       1.65940844       0.53021621      -1.08516692       0.03948988      -0.24110697      -0.83236126      -0.28100076
Cu       1.74649338       3.66170346       5.43286836       0.64309136       1.93018196      -0.75068909       0.03492508       0.21265151      -0.51651792      -0.55503326
Cu       1.83781403       5.37552196       3.65595462       2.54564560       0.00783062       0.30152564       0.02555285       0.06642434       0.29689168      -0.33256695
Cu       3.49244274      -0.05145413      -0.04483310      -2.26020918      -0.13782579       1.74990226      -0.00017511       0.53096366       0.01322833       0.01012993
Cu       3.51138431       1.76549508       1.80056700       0.69012497      -1.60603793       1.03365121       0.00183344       0.44267629       0.03403087      -0.15010656
Cu       5.38232828      -0.04000211       1.82606692      -1.00426480      -0.92178606      -0.94167040       0.01607640       0.09753248       0.47560524      -0.14080627
Cu       5.43329170       1.77476720       0.07032377       0.39310961       3.13738779      -0.00774572       0.04495359      -0.77081518       0.25822860      -0.34715092
Cu       3.57982708      -0.01148358       3.61026304       0.61382076      -0.28173129       1.52520068       0.01196214       0.18224131      -0.19822744      -0.00539493
Cu       3.66417707       1.74105414       5.37059375      -1.26234194       0.27590491       0.65432881       0.02628871      -0.45832075       0.33807219       0.11155607
Cu       5.45428260       0.10757132       5.43948129      -1.87784240       0.55988574      -0.05462521       0.05323826      -0.70865992      -0.66323995       0.18781590
Cu       5.39507541       1.83677176       3.56843959       0.07904971       0.44844497       0.19443492       0.02146490       0.20937483      -0.33223320      -0.10246308
Cu       3.68018607       3.56442035      -0.02957412      -0.66807951       1.05783090      -0.39622009       0.00457311      -0.39959197      -0.10649253       0.13637967
Cu       3.65987172       5.37339358       1.79315285       0.56957513       0.44126035      -1.78233727       0.03676178      -0.79060643       0.22602100       0.06081404
Cu       5.36292608       3.54805242       1.86195421       2.44619999      -0.56693332      -1.84802240       0.02781704       0.08711253       0.42861363      -0.37604859
Cu       5.36596774       5.39040990       0.08600465      -0.92039195       0.20898193       1.34831371       0.02507683       0.39415798       0.35239953      -0.34464467
Cu       3.68074005       3.60377196       3.68014673       0.50753653       1.54630833       1.15811950       0.03599068      -0.84546038      -0.41676308      -0.31539543
Cu       3.68586456       5.31822284       5.40021770       1.42918173      -1.67289429      -2.44957945       0.02412615      -0.33630345       0.72773412       0.33652007
Cu       5.44407170       3.56621090       5.43968871      -3.40229782       0.62243211      -1.77915052       0.01288228       0.29955570       0.07482394      -0.31074401
Cu       5.32499184       5.41458726       3.57871543      -1.61458929       0.13355346      -0.71083637       0.03487286       0.80127377      -0.15162892       0.32322921
