108
Lattice="10.8 0.0 0.0 0.0 10.8 0.0 0.0 0.0 10.8" Properties=species:S:1:pos:R:3:momenta:R:3:energies:R:1:forces:R:3 energy=2.2923428108472628 free_energy=2.2923428108472628 stress="-0.002542809041772659 -0.00018198714313780485 0.0005560208974267924 -0.00018198714313780485 -0.0019242576456417473 0.0012143783458830743 0.0005560208974267924 0.0012143783458830743 -0.0014589325046698925" pbc="T T T"
Cu       0.05926230      -0.04399264      -0.00642456       0.18299664      -0.58427165      -0.43430707       0.00890406      -0.23876373       0.06384210      -0.24512918
Cu       0.06901136       1.84125451       1.75166978       0.03178270       0.02650716      -0.53290508       0.00333295      -0.36985686      -0.19054933       0.04879072
Cu       1.72967399       0.00613370       1.78079929      -1.13781908      -0.16409077       0.55836924       0.01345719       0.04681270      -0.07177803       0.33544155
Cu       1.77869658       1.84153881      -0.06731465      -0.16370568       0.56187307      -0.00568346       0.01855372       0.04380781      -0.06041902       0.39818481
Cu      -0.09951011      -0.14432121       3.66167595       0.25455570       0.09995238       0.46321739       0.05055366       0.63630755       0.86085195      -0.15277197
Cu       0.05322706       1.85507445       5.35400132      -0.29722112      -0.22404031      -0.56801301       0.02594228      -0.46243010      -0.42589864       0.06951231
Cu       1.77490355       0.09822913       5.42125242      -0.62238935       0.14599461       0.56581975       0.03045692      -0.06223828      -0.59840117       0.04214369
Cu       1.79778402       1.85187705       3.51671358      -0.11395135      -0.11967621      -0.22518375       0.02493146      -0.07107341      -0.34015768       0.47639628
Cu      -0.09477503      -0.08177005       7.28248218       0.32717361      -0.18664339      -0.85261836       0.03701562       0.66747041       0.39855850      -0.78384247
Cu      -0.07117039       1.80548926       9.11122556      -0.24388227       0.16983590      -0.85884884       0.03369569       0.30020724       0.05589449      -0.95383986
Cu       1.80622079       0.04952938       8.97193005       0.22129221       0.74956288      -1.30433404       0.00470467      -0.02686494      -0.10441443      -0.33104420
Cu       1.81972484       1.85132595       7.15305054       0.27773485      -0.23443451      -0.01769535       0.02992736      -0.02303128      -0.31175692       0.23906987
Cu      -0.00292864       3.63894635      -0.04444940      -0.68855458       0.51088589       0.38417982       0.01139999      -0.25498163      -0.07049310       0.38451796
Cu      -0.01581370       5.34994597       1.90216426      -0.33336586       0.54520418      -0.12527133       0.01836249      -0.05911263       0.49913854      -0.67245763
Cu       1.84043999       3.65178550       1.76838571       0.56669952       0.44149163      -0.31263859       0.00665008      -0.10354316      -0.16095082       0.11432132
Cu       1.72961159       5.36483421       0.05874411       0.19599077      -0.35844685      -0.02708730       0.03868506       0.50616069       0.10082268      -0.33520688
Cu       0.02569029       3.61084471       3.56509787       0.36379540      -0.48279909       0.14177349       0.03824589      -0.03092319      -0.22426989       0.13519880
Cu       0.01723606       5.38929530       5.41829672      -0.21272035      -0.21775265      -0.16289852      -0.01590548      -0.12105521       0.10162964      -0.16083565
Cu       1.76690183       3.63571871       5.31154422       0.11187775       0.48424227      -0.28777542       0.01614941       0.25625977      -0.05867579       0.46343860
Cu       1.83974799       5.47784097       3.57474057      -0.81921458       0.14039965      -0.24689896       0.04464815      -0.56000868      -0.40305832       0.02425691
Cu       0.07450907       3.57299550       7.25457792      -0.98322811      -0.25191842      -0.17564869       0.01899211      -0.76819602       0.09401107      -0.38193890
Cu      -0.00494079       5.38028192       8.94821299      -0.53637110       0.07924538       0.45131199       0.02287131      -0.15553147       0.09913412       0.45830921
Cu       1.77861337       3.58370178       8.97639414       0.83151586       0.30936861       0.14073241       0.01604484       0.40848794       0.22981992       0.15954956
Cu       1.78463417       5.41711991       7.23038071       0.53312273      -0.00681430      -0.24772728       0.00810505       0.24714580      -0.11164836      -0.18927370
Cu       0.05569357       7.16764971       0.03184609      -0.13808587      -0.64427950       0.02351125       0.01870256      -0.45809958      -0.06736061      -0.11298452
Cu      -0.01354246       8.96603552       1.70788954       1.65118781      -0.34658006       0.10575079       0.02581026       0.56051450       0.06048754       0.59543512
Cu       1.82554603       7.17499241       1.81528852      -0.21335789       1.23353619       0.17819555      -0.00654609      -0.15324613       0.54991340      -0.03852144
Cu       1.90531280       9.01219577      -0.05421849       0.34137848      -0.41127968       0.75670919       0.02795102      -0.55665699      -0.19775241       0.61092311
Cu      -0.02410182       7.21336189       3.62051790      -0.39524793      -0.07390243      -0.49139377      -0.00735592      -0.01922212      -0.07025615      -0.22752030
Cu      -0.03641791       8.85148501       5.43930266      -0.48898875       0.10383185       1.40492882       0.04069363       0.05761769       0.92190358       0.21464588
Cu       1.86063266       7.22543707       5.31201457       1.04634645      -0.00210185      -0.06666803       0.01936422      -0.07435620      -0.14185182       0.50881535
Cu       1.78360029       9.10452176       3.66076120      -0.60291141      -0.37339686      -0.21279298       0.03654396      -0.12258398      -0.77682398      -0.34619967
Cu      -0.00570728       7.12749901       7.17571733       0.02539714       0.30549922       0.48899208       0.02227964       0.07926575       0.46167852       0.35002082
Cu       0.10356533       8.97618297       8.99533645       0.19280683      -1.30849620       0.17759853       0.00042642      -0.45657232      -0.32812519       0.05268518
Cu       1.80654744       7.10324682       9.12671422      -0.11824670      -0.44807987       1.20322965       0.03395715       0.06118768       0.41836268      -0.39343175
Cu       1.90122924       8.88076970       7.21427078       0.03687542      -0.26788585      -0.78166864       0.02422944      -0.57955117       0.62799517      -0.33675689
Cu       3.51018081       0.08510437       0.06148150      -0.15766387       0.02435055      -0.33489881       0.03258429       0.36634129      -0.51600171      -0.42471283
Cu       3.52630780       1.79631969       1.82761366      -0.39521097       0.63302549       0.52196959       0.00406462       0.29010284       0.22835309      -0.03654779
Cu       5.36761518      -0.02524584       1.84520310      -0.44486005      -0.45024058       0.31222364       0.04798693       0.01549025      -0.01410424      -0.17944011
Cu       5.37049389       1.64535402       0.11716256      -0.75974187      -0.30701121       0.05792151       0.03319487      -0.09643798       0.87406556      -0.69104730
Cu       3.55243290      -0.03933390       3.62253765      -0.28035151       1.20357032       0.36925254       0.03410888       0.15650695       0.64189306       0.07200423
Cu       3.62299335       1.89064065       5.28139344      -0.18844820       0.64482366      -0.70801764       0.01420492      -0.27497327      -0.29725862       0.46600195
Cu       5.44767445       0.01622473       5.35996451       1.18621102       0.44209066      -0.20367130       0.00036005       0.09272506       0.09567926       0.11329129
Cu       5.35400495       1.73813918       3.55413226      -0.44712631       0.33889098      -0.38756632       0.01835377       0.13315917       0.56716294       0.07494135
Cu       3.63909761       0.02036934       7.09190593       0.08049488       0.12818928      -0.64006232       0.00949590      -0.16927396      -0.07233663       0.32918991
Cu       3.61008408       1.77100226       8.98261786       0.08195621      -1.31037397      -0.42690018       0.02058915       0.03999698      -0.28591247      -0.08118606
Cu       5.51269446      -0.05752273       9.04136081      -0.28248214      -0.30977411       1.00895404       0.02234147      -0.73333260       0.25847226       0.04269482
Cu       5.47465781       1.70905671       7.27754023       1.00022416      -0.23160532      -0.38137922       0.02115473      -0.08640645       0.47432340      -0.59635319
Cu       3.57501835       3.56603172      -0.06799576      -0.14893304       0.16867435       0.19722330       0.00705164       0.14603829       0.18930542       0.46234483
Cu       3.63518614       5.44258318       1.70240775       0.52648911      -0.96422121      -1.21671298       0.04433469      -0.04086557      -0.44898970       0.18616399
Cu       5.32218358       3.64555293       1.84080707      -1.06615053       0.13094072      -0.11624665       0.00495437       0.14832233      -0.27530096      -0.34529956
Cu       5.52761824       5.35856199       0.02551895       0.35465679       0.21701578      -0.06349948       0.02398707      -0.60932997       0.33459975      -0.16699470
Cu       3.57558785       3.78438233       3.57554530       0.05820115       0.58081893      -0.62948029       0.02924813       0.14609733      -0.84454040      -0.01167217
Cu       3.53002677       5.36992763       5.45475110      -0.12169407       0.51176356       0.97369665       0.01631650       0.41792335       0.34321959      -0.04012751
Cu       5.41103771       3.54658339       5.37659694       0.14363818      -0.23794121       0.12452192       0.01618091      -0.01839859       0.28105554       0.19047434
Cu       5.44555153       5.38255132       3.67856375       0.47297121       0.10216789       0.56360072       0.02363766      -0.13078783       0.23027998      -0.25965403
Cu       3.61426910       3.59836571       7.20700038       0.09346501      -0.14971448       0.03892071      -0.00337118      -0.02603645      -0.10337276       0.00290487
Cu       3.62742021       5.47161137       9.02789548       0.67783918      -0.99374700       1.73124840       0.01379231       0.12763929      -0.78076067       0.48056999
Cu       5.32915277       3.51014776       9.06297079       0.51383440      -0.21280026      -0.08974178       0.03000510       0.60783342       0.39307750      -0.41105655
Cu       5.36718447       5.39897848       7.13065516      -0.24354914      -0.54724730       0.14507027       0.01371923       0.08534159      -0.18871793       0.47595832
Cu       3.70983823       7.24186394       0.12431137       0.60677050       0.34371185       0.15153866       0.02968408      -0.43980942      -0.10169450      -0.68646774
Cu       3.57914086       9.09442108       1.85083674      -1.01273499      -0.13289363       0.08417836       0.01332842      -0.24853688      -0.63250745      -0.20213003
Cu       5.37838031       7.22108506       1.92597282       1.59428221       0.20461358      -0.57623452       0.05587172       0.65996892      -0.09183577      -0.97994657
Cu       5.37045717       9.03041300       0.00887619      -0.29939720       0.74262508       0.34058561      -0.00443560       0.05344768       0.15632558       0.17393889
Cu       3.65043732       7.08158667       3.54945711       0.01821138       0.26629520       0.85296567       0.04254788      -0.21673072       0.74615872       0.48238511
Cu       3.68575210       8.96572760       5.30948425       0.61512344      -0.81858807       0.11700853       0.02086741      -0.30681232       0.02979368       0.53444771
Cu       5.39777139       7.20357489       5.42944889      -0.92758953       0.42133921       0.07651986       0.00485900      -0.24568890       0.05198561      -0.16965624
Cu       5.40314233       9.00806603       3.52771375       0.75611733       0.20602448       0.05166009       0.03391533       0.22713952       0.05278961       0.47857520
Cu       3.58084444       7.16488287       7.34419588       0.27850217      -0.17239737      -0.65039419       0.06012604       0.23691048       0.08951293      -0.96227323
Cu       3.54907286       9.01805627       9.01802121       0.53648284       0.87257205       0.68795870       0.03217198       0.48635075       0.21402784       0.07471821
Cu       5.40706054       7.24559680       9.04481018      -0.17100093       0.25994340       0.75521604       0.02476849      -0.15928214      -0.15196928      -0.01543228
Cu       5.34057441       8.97518744       7.29500608      -0.75786180       0.05628661      -0.46269660       0.00749946       0.13538239       0.23029164      -0.69437370
Cu       7.21622863      -0.02705702       0.08959452       0.73877241       0.11394864      -0.20283262       0.02505146       0.14217751       0.21461031      -0.55916563
Cu       7.12257135       1.87665844       1.79118441       0.16031339      -0.15248148       0.06914497       0.03456194       0.45570602      -0.55832233       0.10573869
Cu       9.06688480      -0.03665092       1.81511932       0.78468792       0.87958901      -0.69715068       0.02132360      -0.06874862       0.33114041      -0.33756001
Cu       9.02029876       1.68961081       0.00383273      -0.38420625      -0.29930859       1.56647581       0.02323637      -0.21134723       0.60469225       0.51504920
Cu       7.19948320       0.03431933       3.50970120       0.09649892       0.36476206      -0.22474915      -0.00198241       0.10056674      -0.06593298       0.39424216
Cu       7.29741754       1.99301925       5.29819750      -1.55188649      -1.34166823      -0.97169098       0.09073309      -0.82371186      -1.39078457       0.24590765
Cu       8.95278562       0.06794935       5.38615075      -0.64387229      -0.02309034       0.19233376       0.00288720       0.03682885      -0.39773115       0.10952948
Cu       8.99905525       1.78268508       3.49640759       0.86812017      -0.06063313      -1.18232602       0.00346862       0.31255279       0.14251371       0.27618502
Cu       7.22861297      -0.06485015       7.21498752      -0.11231895       0.60980787      -1.56729510       0.03176884      -0.16162490       0.46194229      -0.52015560
Cu       7.22346893       1.77913220       9.06777046       0.12958239      -0.10962699       0.37965864       0.01620532      -0.08924079       0.04458290      -0.26921536
Cu       8.98648355       0.05448277       8.96043034      -0.41679218      -0.53833481       0.90609759       0.04271382      -0.06345461      -0.58446599       0.49374408
Cu       9.00087878       1.82607339       7.15552187       0.70567710       0.01433393       0.78131939       0.01370630       0.16193640      -0.07317439       0.45936478
Cu       7.14070142       3.51155370       0.00004216      -0.15466216      -0.36636830       0.18923064       0.03157093       0.26659587       0.41308362       0.11129291
Cu       7.23106454       5.46319204       1.79677085       0.33986845       0.52556808       0.29180705       0.01170202      -0.08190583      -0.22329763       0.13455252
Cu       9.01427111       3.55713032       1.78743337      -0.14377009      -0.58643976      -1.18499980       0.00625258      -0.13049111       0.11421750      -0.33538167
Cu       8.95223004       5.39157117       0.04827830      -0.23508117       0.01633385       0.64531978       0.00568436       0.14067739       0.08054867      -0.07602724
Cu       7.16787962       3.63276568       3.51489379      -0.20887871       0.83457577      -0.76174946       0.03384002       0.16659368       0.04414457       0.23901889
Cu       7.17262001       5.45800133       5.42683798       0.62829559      -0.50036870       0.03040057       0.00753307       0.34887736      -0.54658398      -0.12791241
Cu       9.04005318       3.55629906       5.39277444       2.42604607       2.18579096      -0.41142403       0.04986857       0.36323529       0.75760498      -0.01777610
Cu       9.02046038       5.29155230       3.62647132      -0.62990344       0.21103793       0.77946552       0.01405548      -0.33511829       0.75483447       0.04033284
Cu       7.25374369       3.59277597       7.19423442      -0.67421153       0.61971384       0.94592529       0.01316950      -0.51479840       0.14351697       0.24249060
Cu       7.11381950       5.46489524       8.91709978      -1.22445883      -0.81051985      -0.36968038       0.02254591       0.12153183      -0.61869118       0.38567912
Cu       8.94133411       3.67708555       9.06252482      -0.57489803       0.30815295       0.07274325      -0.00051018       0.11605631      -0.36020657      -0.30945845
Cu       8.96839118       5.44742110       7.20693226      -0.17669453      -0.52813495      -0.60581599       0.00608478       0.11214442      -0.42800489      -0.21927185
Cu       7.18072079       7.27080273      -0.04241537      -0.55440324       0.66271968       0.53167917       0.00815507      -0.03571298      -0.23436513       0.47391617
Cu       7.25425133       9.05791532       1.71384207      -0.47257279      -0.92595452       0.31665772       0.03503706      -0.39254671      -0.65270322       0.61771585
Cu       9.02928553       7.26200991       1.78559653      -0.12336506      -0.78703630       0.17187418       0.01118847      -0.18304565      -0.57191891       0.06165295
Cu       9.03708432       8.97996880      -0.02798995       0.46659832       0.37520129      -2.14018418      -0.00098267       0.01122875       0.22492669      -0.46638939
Cu       7.21083529       7.22253676       3.57100096       0.50820334       0.01695039      -0.53083205       0.00924742       0.09495262      -0.16647617       0.06858681
Cu       7.14780501       8.98083355       5.34019249      -0.50000809       0.59527157      -0.16276540       0.00229743       0.13130114       0.30947850       0.32286865
Cu       8.92311139       7.21835371       5.40851215      -0.58112124      -0.26766176      -0.30969975       0.01800964       0.25488324      -0.22940159      -0.16609018
Cu       8.95644207       9.00983744       3.56115019      -0.96472960      -0.73831068       0.42045798       0.03309445      -0.04133701      -0.25508341       0.34811249
Cu       7.16540843       7.24283814       7.21125102      -0.79715070       0.16338535      -0.33217708       0.02183028      -0.10536171      -0.17216841      -0.13592228
Cu       7.24670079       8.99455373       8.93716453       0.05867278      -0.28264623       2.10589015       0.05364791      -0.25225923      -0.00761882       0.97427389
Cu       8.96513831       7.10742451       9.06223925       0.94174145      -0.01576352       0.47867692       0.01056298       0.45838439       0.45428040      -0.24155395
Cu       8.93242456       8.95040469       7.26990751       1.29796414      -1.02451338      -0.60077966       0.04350258       0.78111304      -0.06565904      -0.54451009
