2
Properties=species:S:1:pos:R:3:energies:R:1:forces:R:3 energy=0.2646706711895117 free_energy=0.2646706711895117 pbc="F F F"
N       -0.00000000       0.00000000       0.49912202       0.13233534      -0.00000000       0.00000000       0.38953571
N        0.00000000      -0.00000000      -0.49912202       0.13233534       0.00000000      -0.00000000      -0.38953571
