4
Lattice="4.08 0.0 0.0 0.0 4.08 0.0 0.0 0.0 4.08" Properties=species:S:1:pos:R:3:energies:R:1:forces:R:3 energy=0.010425404729216936 free_energy=0.010425404729216936 stress="0.01819031895243473 2.959923825718172e-17 8.663226170291393e-18 2.959923825718172e-17 0.01819031895243473 1.6751079533478496e-17 8.663226170291393e-18 1.6751079533478496e-17 0.018190318952434836" pbc="T T T"
Au       0.00000000       0.00000000       0.00000000       0.00260635       0.00000000       0.00000000       0.00000000
Au       0.00000000       2.04000000       2.04000000       0.00260635      -0.00000000       0.00000000       0.00000000
Au       2.04000000       0.00000000       2.04000000       0.00260635       0.00000000       0.00000000       0.00000000
Au       2.04000000       2.04000000       0.00000000       0.00260635       0.00000000       0.00000000       0.00000000
