4
Lattice="3.5897387439196993 1.600823251483625e-14 3.1962871014585013e-14 1.851585956033523e-14 3.5897387439196686 -4.8788033752075025e-15 2.8044964715134955e-14 -1.873945300110971e-15 3.5897387439196895" Properties=species:S:1:pos:R:3:energies:R:1:forces:R:3 energy=-0.028145865931183067 free_energy=-0.028145865931183067 stress="-6.092814859494442e-05 5.47672147690132e-15 9.40046115734306e-15 5.47672147690132e-15 -6.0928148598170095e-05 -1.2538163405632187e-15 9.40046115734306e-15 -1.2538163405632187e-15 -6.09281485983237e-05" pbc="T T T"
Cu       0.00000000       0.00000000       0.00000000      -0.00703647      -0.00000000       0.00000000       0.00000000
Cu       0.00000000       1.79486937       1.79486937      -0.00703647      -0.00000000       0.00000000      -0.00000000
Cu       1.79486937       0.00000000       1.79486937      -0.00703647      -0.00000000       0.00000000      -0.00000000
Cu       1.79486937       1.79486937       0.00000000      -0.00703647       0.00000000      -0.00000000       0.00000000
