4
Lattice="3.4849754147970726 -4.269482756171386e-17 -1.240766071094708e-17 -4.2694827561713855e-17 3.4849754147970726 7.43661180493715e-19 -1.2407660710947083e-17 7.43661180493715e-19 3.484975414797072" Properties=species:S:1:pos:R:3:initial_magmoms:R:1:energies:R:1:forces:R:3 energy=-0.053146331068990804 free_energy=-0.053146331068990804 stress="-0.0020573793345338535 -2.9196585700361805e-16 -4.973972712183136e-17 -2.9196585700361805e-16 -0.002057379334532846 3.5176877555815127e-17 -4.973972712183136e-17 3.5176877555815127e-17 -0.0020573793345393934" pbc="T T T"
Ni       0.00000000       0.00000000       0.00000000       0.60000000      -0.01328658      -0.00000000       0.00000000       0.00000000
Ni       0.00000000       1.74248771       1.74248771       0.60000000      -0.01328658       0.00000000      -0.00000000      -0.00000000
Ni       1.74248771       0.00000000       1.74248771       0.60000000      -0.01328658       0.00000000      -0.00000000       0.00000000
Ni       1.74248771       1.74248771      -0.00000000       0.60000000      -0.01328658       0.00000000       0.00000000       0.00000000
