8
Lattice="0.0 4.09 4.09 4.09 0.0 4.09 4.09 4.09 0.0" Properties=species:S:1:pos:R:3:momenta:R:3:energies:R:1:forces:R:3 energy=0.4510607185966098 free_energy=0.4510607185966098 stress="-0.009256272068025104 0.007821509198515144 0.00411533007238459 0.007821509198515144 0.0010988898545995622 -0.0006262747168370135 0.00411533007238459 -0.0006262747168370135 -0.0022362687370759884" pbc="T T T"
Ag      -0.08857165      -0.08464542       0.12095042       3.94862632      -2.63425983      -2.87691605       0.04893888       0.41359653       0.24306203      -0.24708523
Ag       2.09888713       1.88344511       0.09830047      -0.42082216       1.93394517       1.71129348       0.06713156      -0.25952810       0.62240430      -0.38360714
Ag       2.14957290      -0.15923695       2.02221214       2.03722731      -1.17843855      -1.23084983       0.04402841      -0.67678959       0.20584778       0.33589598
Ag       4.00025957       1.94019363       2.19783362      -2.13892500       2.54140824       0.07327152       0.02007162       0.17866525       0.31774679      -0.14557429
Ag       0.15100991       2.23848027       1.96188449       0.11210432      -2.25220933      -0.48775077       0.07295688      -0.32952034      -0.60767511      -0.03345528
Ag       2.07431293       4.29882173       1.93843503      -4.16529869       0.62205497       4.13254794       0.07674409      -0.20206313      -0.48801949       0.57635612
Ag       1.89329467       2.06745054       4.05132325       1.64559594      -1.25171850      -1.50368746       0.07494926       0.60629949       0.22843848      -0.07531446
Ag       4.08123454       4.17549109       3.96906057      -1.01850803       2.21921784       0.18209116       0.04624001       0.26933988      -0.52180477      -0.02721571
