32
Lattice="7.2 0.0 0.0 0.0 7.2 0.0 0.0 0.0 7.2" Properties=species:S:1:pos:R:3:momenta:R:3:energies:R:1:forces:R:3 energy=2.0489185077721075 free_energy=2.0489185077721075 stress="-0.013503922161315494 0.0005878951751133215 -0.0028557319725725184 0.0005878951751133215 -0.013104431814372767 -0.0017848885472056969 -0.0028557319725725184 -0.0017848885472056969 -0.01918688009016996" pbc="T T T"
Cu      -0.15330287       0.01037051      -0.05876471      -1.31130956       0.87400127      -5.66492579       0.08135730       1.52818949       0.39947568       0.09299677
Cu       0.01525763       1.65877246       1.89451780       2.87323276      -2.31427859       3.89563518       0.04744585      -0.51126560       0.53178706      -0.88978879
Cu       1.80945763      -0.06712961       1.77699960      -0.37306585      -0.58557668      -0.01902537       0.09787264       0.56176754       0.68227760      -0.48959147
Cu       1.81898945       1.82713246      -0.00333809       1.89700842       2.11472948       3.00620614       0.08399213      -1.22152479      -0.76198602      -0.12870629
Cu      -0.05578599      -0.06379444       3.65032993       1.29601505      -0.68073229      -1.13299856       0.05461338      -0.50947524      -0.22280771      -0.05445733
Cu      -0.14714798       1.85183044       5.30039622      -1.81652919      -1.45243836       3.89892030       0.06492570       0.97769564      -0.65648247      -0.09558296
Cu       1.87884560       0.12223172       5.49372581       1.62018924       0.37818006       0.47055947       0.03924864      -0.61098697      -0.56382752      -0.28202277
Cu       1.70637748       1.51522081       3.52869203      -3.41261201       3.59629560      -1.40293420       0.12830387       0.90209956       1.61027805       0.79993669
Cu       0.04607112       3.74377156       0.03492649       1.02202365      -0.40542370      -0.86970386       0.09966078       0.06120340      -1.18562774       0.54489434
Cu       0.08760576       5.55168555       1.76534734       2.93420545      -1.15411245      -1.97808865       0.08072507      -0.28574489      -0.64735903       0.73637599
Cu       1.76621949       3.48166262       1.79989854       0.79641602      -1.04126293      -1.45102459       0.09615353      -0.18954850       0.72664383      -0.26620090
Cu       1.81979383       5.46176331       0.03166484       2.20968513      -3.19669597      -0.39976692       0.06961228      -0.49476683      -0.40378354      -0.58823513
Cu       0.19044957       3.72147843       3.52615335      -1.11174422       0.70638638      -2.13614593       0.06951044      -0.86283918      -0.30828732       0.32950940
Cu       0.01332076       5.43967224       5.42177254      -0.71241958       1.53126328       5.06784912       0.03698765       0.26405152       0.16566055      -0.24690171
Cu       1.59177321       3.58978927       5.44394300      -2.34516325      -2.35562334      -1.17316397       0.08641167       1.48402942      -0.21705993      -0.31911964
Cu       1.87127710       5.54574510       3.64972321       0.03921374       1.94515746      -1.37332623       0.00767286       0.03328981      -0.31428999       0.00587399
Cu       3.63360497      -0.04798161      -0.01149779       0.60372854       0.28896598      -3.13068174       0.04445572       0.22182603       0.58408892       0.06011654
Cu       3.56153784       1.87220857       1.68561284      -1.10963333       2.81120540       1.37160850       0.10235103       0.72549369      -1.19963559       1.04372425
Cu       5.31030372      -0.07455873       1.71441624       1.43164096      -3.82692718       1.54260779       0.03513993       0.31834848       0.42596548       0.82481281
Cu       5.55079094       1.85061969      -0.01924083      -0.50780856       0.43354565      -0.00752391       0.04985953      -0.79696141       0.29842041       0.77147567
Cu       3.67544485       0.05827732       3.56218939      -1.46021731       0.37324811       1.68457098       0.03030136      -0.18023256      -0.37295293       0.04837956
Cu       3.73105228       1.77537964       5.44183233      -4.09538247       0.06982018      -1.15846389       0.03308623      -0.33984222       0.31461482      -0.47884526
Cu       5.39156889      -0.05998433       5.38969829      -3.62980206      -0.81747145       0.05050500       0.04120330      -0.37547207       0.18700729       0.02334667
Cu       5.34610164       1.84844278       3.48321137       2.16534259      -3.18257125       1.78525728       0.03334321       0.17511138       0.05335173       0.29672062
Cu       3.52008614       3.42545507       0.01515948       1.48629221       3.47266177      -2.60943436       0.14971965       0.92767131       1.86273009      -0.81397991
Cu       3.54343312       5.33361995       1.66524886      -0.53157083       1.30938342      -0.41215981       0.02549252       0.43303388      -0.23038495       0.82864717
Cu       5.52392961       3.77215927       1.95369973       0.84021807       0.14806906       0.85042332       0.07204414      -0.40692569      -0.88832478      -0.83741537
Cu       5.56782499       5.36684250       0.08457696       0.87125620       0.70286343      -0.71194568       0.12925116      -1.73935305      -0.20110990      -0.78198135
Cu       3.43499268       3.56022228       3.53424324       2.78369594       1.53098219      -1.77901470       0.01893479       0.31795362      -0.00883809       0.74879328
Cu       3.52689696       5.37866261       5.50557856      -1.08026312      -2.66175325       5.21786062       0.02205388       0.45011107      -0.47264356      -0.31995242
Cu       5.51567661       3.61140282       5.42756770       0.69349403       1.62049797      -2.42498403       0.06286932      -0.89426131       0.43082225      -0.23471448
Cu       5.30755298       5.33902974       3.71171570      -2.06613666      -0.23238923       0.99330850       0.05431893       0.03732446       0.38227731      -0.32810796
