32
Lattice="7.78 0.0 0.0 0.0 7.78 0.0 0.0 0.0 7.78" Properties=species:S:1:pos:R:3:momenta:R:3:energies:R:1:forces:R:3 energy=0.5486132244638604 free_energy=0.5486132244638604 stress="0.0022901486873083275 0.0005450170470878767 0.0010394841736735454 0.0005450170470878767 0.0022082097747238537 -0.0006200067224469986 0.0010394841736735454 -0.0006200067224469986 0.0018723927959890885" pbc="T T T"
Pd      -0.00025338       0.03376092       0.01163683       0.93179882      -0.55480352       2.64947334       0.01750312      -0.13864535      -0.38509137      -0.26692765
Pd       0.05045549       1.85714965       1.90986350      -2.95192717      -2.15250831      -1.85412302       0.02399737      -0.28543315       0.55048530       0.44986037
Pd       1.96549051      -0.01565468       1.97370922       1.34191871       1.97092381       0.08808886       0.01362027      -0.23392786      -0.07053335       0.14420152
Pd       1.93360603       1.93296618      -0.02460852       0.26279937       2.22702011      -0.57713720       0.02085812       0.14660614       0.19493861      -0.10074445
Pd      -0.08555458      -0.03077454       3.90059187      -2.22599139      -0.55463702      -1.90091411       0.02411116       0.54128578       0.07937099       0.00613768
Pd       0.05798021       1.97210151       5.81305996       2.19349494      -0.26106071       0.25810375       0.01672525      -0.53632739       0.04024744       0.07540657
Pd       1.87596336       0.06169621       5.83743003      -1.04782110      -0.05021674       2.38882972       0.01935782       0.41493744      -0.14551733      -0.23635652
Pd       1.94329685       1.95580208       3.86213855       0.70563389      -1.14658579      -0.60244633       0.00773061       0.19531768      -0.07544059       0.08201866
Pd      -0.01489546       3.91125022      -0.01325926      -4.18243366       1.37710795      -2.15052520       0.01209640       0.17085123      -0.04622034      -0.17604332
Pd       0.08173331       5.76736162       1.90005193       2.73914373      -2.68819269       2.50529404       0.01103760      -0.25574342       0.24185836       0.30349318
Pd       1.97025939       3.81370342       1.84588039      -0.07607162       0.32706587      -0.26707295       0.02302162      -0.04789564       0.41448758       0.50795275
Pd       1.90251433       5.88036769      -0.05771588      -3.36537852      -1.45015239      -2.75869347       0.02788340      -0.03857861      -0.15485118       0.45620079
Pd       0.03552630       3.86886107       3.88458646       1.64984084      -1.08113794      -1.88443459       0.00820413      -0.20976899      -0.00110386      -0.21088232
Pd      -0.00986316       5.87389373       5.80028559       1.18484137       4.31255505      -1.41175910       0.00839610      -0.18374194      -0.17320934       0.25416723
Pd       1.97911781       3.93271905       5.76975475       3.35728212       3.62520565      -3.63606994       0.02691326      -0.30770108      -0.50707082       0.47791036
Pd       1.96784094       5.81433586       3.93807644       0.57665669      -0.75958822       0.65433819       0.02190250      -0.21324605       0.27490779      -0.54227747
Pd       3.84429192       0.07224350       0.10906620      -2.52726681       1.45971969       2.59129190       0.02271503       0.31949261      -0.27290878      -0.50360365
Pd       3.89652332       1.95102359       1.95331934       0.91027868       1.08327511       0.24673123       0.01643156       0.23345752       0.10795337       0.20463487
Pd       5.90389880      -0.08389052       1.94192048       0.45731587      -2.00979096      -0.80674209       0.01758380      -0.45422462       0.28382478      -0.01598465
Pd       5.89757540       1.99036478       0.04434282       2.97340843       0.23128524       2.29141283       0.01249350      -0.35231493      -0.24578414      -0.21617211
Pd       3.89307933      -0.00612481       3.90217845      -0.30358972       1.50342700       0.21594565       0.00390159       0.01311909      -0.13504452      -0.08837387
Pd       3.96628975       1.94603871       5.81932664       0.84024350       0.49952057      -2.16791580       0.02288240      -0.62439269       0.11267061       0.22159135
Pd       5.73771300       0.01369970       5.90451399      -1.23435673      -3.77572294       2.47129953       0.02176794       0.51313566      -0.27054257      -0.06933267
Pd       5.83268066       1.87683296       3.93779865      -1.49294869       0.25477357       0.50884318       0.02021665       0.16310178       0.43764317      -0.42253442
Pd       3.86742046       3.89944394      -0.05642858       0.96124096      -1.40229273       0.57820990       0.00877478       0.13563583      -0.15321140       0.24839137
Pd       3.85279289       5.82372498       1.93931047       0.75267292      -1.40386213       0.49607924       0.00217148       0.08501696      -0.13320307       0.04970465
Pd       5.84696441       3.88017521       1.93537100       0.58419758      -1.43213308       1.03672376       0.01012521      -0.03648666       0.00003580       0.15324669
Pd       5.76715514       5.84286508       0.00279472      -0.72523755       3.07134842      -0.35804533       0.00965695       0.28695726      -0.04393020      -0.00850559
Pd       3.92725164       3.92633636       3.93798322       0.78512322      -0.03181988       0.25260767       0.01293463      -0.00771619      -0.17518765      -0.33019101
Pd       3.75570810       5.89716767       5.92338395      -3.86991361       0.71695973       0.67988274       0.04859900       0.94467102       0.10322142      -0.48225036
Pd       5.84317783       3.90818160       5.85664155       1.24194238      -1.33005051       2.00571819       0.00999828       0.05962246       0.05562536      -0.16026887
Pd       5.87425938       5.79237725       3.85699525      -0.44689744      -0.57563222      -1.54299458       0.02500167      -0.29706390       0.09157995       0.19553091
