108
Lattice="10.836817269726 0.0 0.0 0.0 10.836817269726 0.0 0.0 0.0 10.836817269726" Properties=species:S:1:pos:R:3:momenta:R:3:energies:R:1:forces:R:3 energy=3.9261168202407593 free_energy=3.9261168202407593 stress="0.002149781285099011 0.0003364036503394082 7.957280028362689e-05 0.0003364036503394082 0.000914594287276887 0.0008212513829540252 7.957280028362689e-05 0.0008212513829540252 0.0015101481644739245" pbc="T T T"
Cu       0.06578898      -0.09432881      -0.02358197       1.31352254       1.81994784       0.13095906       0.02650519      -0.10971270       0.88649907       0.33951201
Cu      -0.03937580       1.77609509       1.84751509      -2.87446820       0.16335932      -0.95240989       0.03555864       0.18569138       0.47988969      -0.53534256
Cu       1.73507867       0.01647235       1.87197382       0.55192459       0.48155213       0.73314472       0.03103051       0.23084937       0.01094330      -0.49842627
Cu       1.81858926       1.74447607      -0.08202709       1.31100986       1.45329889       1.26815171       0.02071578       0.03197302       0.29413650       0.56061559
Cu      -0.05700741       0.03896240       3.50718229      -1.52334888      -2.17527945      -0.70360825       0.06065831       0.28220760      -0.30138850       0.82318671
Cu      -0.04790117       1.84843711       5.36738474      -0.32655681      -1.61164652      -0.05776381       0.04402132       0.53681493      -0.07232878      -0.36712351
Cu       1.73582936      -0.00468421       5.36272584      -0.89618065       1.33745424       0.36841885       0.00826794       0.21333028      -0.33964823       0.15722267
Cu       1.87489112       1.79714041       3.69276178      -1.10301124       0.26299200      -1.38408215       0.02485609      -0.36842423       0.37731594      -0.57076183
Cu       0.06360305      -0.00596278       7.24778179      -0.41301076      -0.80945709      -2.17449557       0.03574943       0.20938389      -0.29015478      -0.31376190
Cu      -0.00652500       1.75706282       9.06892552       0.85456421       0.78397262      -0.93709233       0.03626700       0.41420326       0.09711446      -0.09662721
Cu       1.96095467      -0.05996493       9.01332699      -0.53360492      -0.47394686       0.50320864       0.03099387      -0.65853335      -0.42585638      -0.11601358
Cu       1.82794669       1.68833329       7.27562020      -0.47188335       0.31668679      -1.25452418       0.03040904       0.04997727       0.53399483      -0.77614586
Cu       0.09084824       3.56647224       0.06564606      -0.27915499      -0.75511167       0.17060481       0.01640807      -0.55027926      -0.20977612      -0.35826195
Cu      -0.08307988       5.38030838       1.81522677       0.67785736      -0.99948591       0.54987314       0.01373614       0.34392814       0.40241931       0.04773484
Cu       1.89844118       3.59102492       1.75675471      -1.76661745       0.51712149       0.32793498       0.01724920       0.10709084      -0.58124249       0.17220758
Cu       1.72514444       5.37998062       0.08077325       0.59227470      -1.14560284       2.28095656       0.03636910       0.23479836       0.40184578      -0.45958525
Cu       0.06648987       3.64732222       3.49574265      -0.11882247       0.19471858       1.76426535       0.03887959      -0.67219709      -0.70938529       0.41482980
Cu      -0.14174415       5.39531443       5.35356085      -1.22396445       1.72809409      -2.86928558       0.02761873       0.11469011      -0.43852801       0.20188045
Cu       1.72932977       3.61568008       5.42636784       0.70846045      -0.93576197       1.52108071       0.01177743       0.27867126      -0.15281717       0.02504273
Cu       1.79253584       5.28458839       3.57964668       1.46868495       1.04502200      -2.17642565       0.06166267       0.27958009       0.66221385      -0.04623510
Cu      -0.01592049       3.46595234       7.25036193      -0.43477676       1.24531147      -0.98278062       0.03760270       0.18277405       0.92316170      -0.17010861
Cu      -0.03454413       5.44536755       9.16576846       2.27241678      -0.32696012      -0.35033558       0.02709932       0.27953300      -0.51919175      -0.36213082
Cu       1.80566197       3.53662644       8.97200415       2.31840316      -0.61407780       0.83898814       0.00745862      -0.05610506       0.49471901       0.25108469
Cu       1.76388066       5.35678553       7.22121846      -0.65750798       0.13951570      -2.19524890       0.05958547       0.05146990      -0.25197736       0.28216241
Cu      -0.02528970       7.33445713       0.12149661       1.38476472      -2.83952761       0.45926046       0.08050439       0.42619550      -1.19287953      -0.72990565
Cu      -0.10353203       8.96433489       1.81716374      -1.14176255      -1.22281082       0.61273151       0.05000034       0.26104009       0.83692155       0.85770723
Cu       1.68603958       7.21683382       1.87548973       0.97206303      -1.81871427       0.71583297       0.03597371       0.56534131      -0.18577140      -0.28951989
Cu       1.85170705       9.06647712       0.09709379       2.29906798      -1.13879951      -2.47279272       0.01301598      -0.27193135      -0.54934908      -0.13016858
Cu       0.00758999       7.21722626       3.64387699      -0.45953928       0.63290108      -0.41134557       0.04537450      -0.75625734      -0.37708136      -0.52678452
Cu       0.05069738       8.88034744       5.38722257       1.26724532      -0.25169981       2.22223062       0.02745713      -0.04730970       0.62147816       0.40251803
Cu       1.72502168       6.94344143       5.33203097      -1.59608336      -0.43813859       0.70262262       0.07955678       0.87097781       1.08988416       0.18047689
Cu       1.82739223       9.00955155       3.50182673      -0.07502548       0.47575959       0.07702424       0.04049286      -0.31337497      -0.03088488       0.93074830
Cu       0.11884314       7.04330993       7.19715877       2.69662401      -0.52149200       0.66781036       0.06856871      -0.97545220       1.00428258       0.31161841
Cu       0.10018396       9.01297377       9.09363145      -0.77845479       0.08091310       1.46531155       0.02946085      -0.13858271      -0.12568090      -0.67155796
Cu       1.73082248       7.17782278       9.15328787      -0.65397452       0.47251082      -0.01555840       0.02367876       0.26855353       0.21316315      -0.29031515
Cu       1.80088655       8.95972693       7.20967667       0.25275272      -1.92008143       1.31291864       0.02422736      -0.04345939       0.08063483       0.08633986
Cu       3.52756713      -0.01471520       0.01038637      -1.45392085       0.29665179      -0.25666882       0.04555200       0.93171548       0.02508768       0.21381785
Cu       3.64937263       1.67176876       1.80006158      -0.41605933      -0.82361744       0.39412585       0.02070317      -0.04715511       0.73919051      -0.06114650
Cu       5.49453966      -0.05998282       1.82093908      -0.09687912       0.27513137       1.44705164       0.03213600      -0.61593822       0.20995224       0.03442246
Cu       5.45236714       1.89187122      -0.03828620       0.07502252       0.07677639      -1.43612486       0.05143924      -0.85907840      -0.26570278       0.20359706
Cu       3.54018260      -0.04679278       3.57829036      -1.00562945       0.25654994       1.04371372       0.03940830       0.43464333      -0.17198840       0.20799310
Cu       3.76699687       1.74737934       5.26972393      -0.61754296      -1.79167827      -0.63816987       0.07197466      -0.80634800       0.69236854       0.90610465
Cu       5.36828423       0.00169018       5.40585533       1.96984358      -1.11195854       0.95923968       0.07223530       0.31891166      -0.66228797       0.24863875
Cu       5.48029227       1.77644874       3.56863501      -0.34196751       1.18879585      -2.14127312       0.02925412      -0.17979751       0.12243746      -0.47065292
Cu       3.62757102      -0.06249536       7.15477043      -0.20126766      -0.22069128      -0.06744557       0.02288915      -0.13614890       0.07853352       0.20289964
Cu       3.59426484       1.77725406       8.97914775       2.08192113       0.26681856      -0.00443936       0.03787264       0.43343889       0.46728252       0.21163469
Cu       5.39855843       0.08887917       9.06730691       0.90592765      -1.11088182       1.21521203       0.01854411      -0.23742481      -0.49899500       0.25655901
Cu       5.39317299       1.81753267       7.24112628      -0.72602870      -0.41025154      -1.23058404       0.01301009      -0.21369802       0.38048469      -0.12830174
Cu       3.63576075       3.73472170      -0.13007364      -2.80977176      -2.11533466      -0.16359643       0.02463654      -0.35009016      -0.47379080       0.30064279
Cu       3.49021231       5.54820536       1.77087022      -0.94495577      -0.93443777      -0.05679726       0.04608514       0.61150719      -0.61564940       0.32280724
Cu       5.34572340       3.64053957       1.67319230       1.97803632       0.03605054      -2.40264900       0.00457597       0.05733465       0.31559423       0.56086015
Cu       5.36052172       5.54650734      -0.04812505      -0.35626741       2.08420737       1.75768981       0.03718531       0.53358533      -0.69901121       0.12253051
Cu       3.65153113       3.66394040       3.63140615      -1.58712455       2.87381470       0.04141303       0.00735797       0.14457949      -0.33047547      -0.11720897
Cu       3.66638631       5.39510831       5.52404327      -2.41578305       0.85155775       0.74782658       0.06719041      -0.27475364       0.43173176      -1.12359632
Cu       5.55863625       3.65037043       5.42536349       0.24955689       0.89858047       0.84893734       0.02365669      -0.53190334      -0.09966206      -0.06295779
Cu       5.30825071       5.51480819       3.54177724       0.13552330       1.73160465      -0.61080747       0.04768844       0.61981993      -0.62838784       0.56403249
Cu       3.56615855       3.66586175       7.12217985      -0.38000704       1.25704544       0.51300675       0.04179305       0.30489891      -0.93103919       0.59459586
Cu       3.55867375       5.53499216       8.97026613      -0.47210026       1.05909183       0.37416161       0.00744179       0.15014859      -0.45139676      -0.01246700
Cu       5.41375245       3.71441713       8.98559296       1.37374298      -2.29741443       2.47445923       0.00335500      -0.13413032       0.04211111      -0.18635632
Cu       5.40409177       5.42749339       7.15828614       1.76307828      -1.73529973       0.62075680       0.03350487       0.69542769       0.33385185       0.64192616
Cu       3.62771641       7.17329448       0.00646412       0.39082684       1.87828829       2.74181016       0.08394032      -0.54571047       0.23755407       0.40358514
Cu       3.59868895       8.97878818       1.80048329      -0.97654144       1.35487533      -1.36719851       0.01304551       0.26850022       0.06645386       0.12153467
Cu       5.46683735       7.17457291       1.80471411      -1.75442389      -0.27726652       1.85621885       0.03755135      -0.22852368       0.91168982      -0.13102056
Cu       5.37630428       9.04872410       0.09472535      -0.58764527      -0.37829824       0.65758598       0.02417073       0.25425482      -0.21088646      -0.39258925
Cu       3.67943154       7.26522007       3.63885111       0.27012830      -1.91632724      -3.13260811       0.02709367      -0.63600045      -0.09832535       0.01827113
Cu       3.66093440       8.87616742       5.51554641       1.38312490       0.03680097       0.51841865       0.08834240      -0.63111106       0.96204527      -0.68766125
Cu       5.49017401       7.29581704       5.44941289       1.31813242       1.35234781      -1.77435621       0.01661769       0.12234961      -0.27176482       0.27815535
Cu       5.37866880       9.13336395       3.69451021      -0.07960347      -1.16593142       0.60042088       0.05053521       0.21589427      -0.59175690      -0.50347163
Cu       3.56455798       7.25672128       7.21263427       0.00830274       1.90166489      -0.45108224       0.04917442       0.08655688      -0.55280912       0.42742477
Cu       3.68295247       8.84125041       9.18931976      -0.13616124      -0.31509816      -0.38569499       0.07138046      -0.73685715       1.08636922      -0.82729431
Cu       5.49756599       7.27066686       9.02840966       1.78597747      -0.27311527      -0.52765792       0.04696335      -0.05534158      -0.40712627       0.01831790
Cu       5.40204411       9.07388870       7.41874839       0.45349395       0.56484306      -1.37755762       0.03074275       0.38967536      -0.01125276      -0.78739171
Cu       7.18587195       0.03812511       0.03507732       0.54206696       0.97893801       1.02385046       0.07392382       0.43249139       0.19773906      -0.55366806
Cu       7.15976533       1.77918116       1.72547803      -0.34180792       0.42830558      -1.20848063       0.02756027       0.29538172       0.72666895       0.29720193
Cu       8.98812714       0.10506196       1.86599639       0.17239214       0.14707426       0.99128579       0.03493602       0.16678576      -0.38545262      -0.71851383
Cu       8.98438636       1.82041661      -0.13405281      -0.27198561      -0.01956605       1.84600467       0.02546793       0.29515272      -0.11351544       0.87077415
Cu       7.26267229      -0.11049004       3.59105118      -1.11807464      -0.72249883       0.01109034       0.03122818      -0.29925546       0.48810160       0.17234196
Cu       7.10145855       1.68283281       5.36460074       0.27096551       0.53915421       0.55548247       0.04569167       0.87608155       0.55937793       0.31674479
Cu       9.16541017       0.04034243       5.36636366      -0.49335446       2.43591985      -1.32610149       0.03787181      -0.53015817      -0.19030235       0.40215053
Cu       8.87083746       1.90738232       3.60501275       0.72668550      -0.89298933       0.87959788       0.01066218       0.38593399      -0.27260762      -0.17188464
Cu       7.14338838       0.11334744       7.27896054       0.66523212       0.51423073      -0.09101788       0.02454630       0.59980507      -0.41488661       0.15165214
Cu       7.14241658       1.90939409       9.12561106       2.27654687      -0.50947811      -0.82003065       0.07093463       0.58389365      -0.39718863      -0.89018095
Cu       9.14945984       0.01614194       8.94536568      -1.42844823      -0.65501224      -0.75733081       0.07436230      -0.86198418       0.06156965       0.75356674
Cu       9.12792917       1.75707203       7.14313274       0.62223565      -2.53137580      -0.10710438       0.04766704      -0.99648343       0.11353441       0.38760219
Cu       7.20870409       3.75510443      -0.07776955       0.22367054      -0.07088646      -1.45303431       0.01537399      -0.18828701      -0.25351538       0.44016252
Cu       7.23405077       5.49159752       1.86157162      -1.26263057       1.00918103      -0.23984150       0.04810626      -0.49608364      -0.51810599      -0.40584780
Cu       9.00770088       3.62027156       1.72825646      -0.25715785      -0.06033364      -1.37104258       0.01018272      -0.26732979      -0.55446335       0.33399530
Cu       9.01855520       5.36941997       0.06468512      -0.92117351      -1.64676319      -0.92539751       0.05054172       0.32936251       0.17968343      -0.50930867
Cu       7.12305317       3.70523950       3.56082454       1.57878964      -0.05632754      -0.96669349       0.04075067      -0.07190374      -0.43997800      -0.17177865
Cu       7.31059602       5.49559635       5.39885547       0.11315914      -2.58026843      -0.09348040       0.03983996      -0.80003978      -0.35048366       0.29045744
Cu       9.00920358       3.60907190       5.32719819      -0.70531493       0.58623871       1.60846729       0.02875159      -0.25235340      -0.14485634       0.59777454
Cu       8.92719312       5.35197420       3.59500733      -0.48703732       1.14002724       1.60748596       0.04919080       0.66015607       0.60805970      -0.30354789
Cu       7.28282151       3.57645894       7.24809072       1.59262565       0.98892892       1.97952498       0.00287718      -0.02643939       0.10817700      -0.16107191
Cu       7.29561315       5.57036034       9.06733051      -0.21765676      -0.71515251       1.31820293       0.06567725      -0.52964648      -1.04705318      -0.50462541
Cu       9.08157005       3.61771592       9.01107090       0.34022443       1.28427562      -1.39304373       0.01287117      -0.14677416       0.00700903       0.19092869
Cu       9.02423796       5.41608908       7.28843383      -0.36895683       0.16469379       1.13516313       0.01543789       0.22674807      -0.09269870      -0.41778991
Cu       7.27173585       7.19240961       0.00748964      -2.38172336      -1.61735688      -0.88764074       0.04365461      -0.33680302       0.42328438      -0.03360106
Cu       7.33308330       9.07328972       1.62423347      -2.36914895       0.46292046       1.42098798       0.03464175      -0.17169865      -0.44126706       0.96289837
Cu       8.96965944       7.16943335       1.71182738       1.23962432      -1.53971283      -0.23838080       0.05697618       0.32730418       0.45707850       1.15208648
Cu       9.18429231       9.05924988      -0.00191359       0.20367779       0.61163859      -1.38670832       0.08991257      -1.19407184       0.33850692      -0.37564834
Cu       7.14802162       7.36382327       3.62809350      -1.25659378       1.73181450       0.98664340       0.00112751       0.38031084      -0.09305725      -0.25707784
Cu       7.31365354       9.11911463       5.55964125       0.33987198       0.71375449       0.27131339       0.01920074      -0.60817591       0.14939560      -0.17434193
Cu       8.93632882       7.23577922       5.38819613      -0.36197025      -0.82292851       1.22474197       0.04695097       0.75594939       0.16322967       0.30322434
Cu       9.01533761       9.09044794       3.72648102       3.19365578       1.07519914       0.33715070       0.06026206       0.26859229      -0.65520583      -0.82720021
Cu       7.30180876       7.30926400       7.27919049      -0.83719714       2.69445654       0.11982097       0.02082511      -0.22713333      -0.04250005       0.03667563
Cu       7.25000344       9.11172882       9.22941017      -1.27931847      -1.99963946      -0.59102401       0.00103400       0.13714537      -0.23256846      -0.71813230
Cu       9.08112763       7.16539595       9.10601058      -0.66277780      -0.36137528      -2.53053183       0.02726987       0.29656551       0.92847360      -0.23632808
Cu       9.06867882       9.12088907       7.31279251       0.52405831       2.77848127      -1.47284683       0.04196873       0.17627414      -0.65728852      -0.33403736
