32
Lattice="8.062945066975946 0.0 0.0 0.0 8.062945066975946 0.0 0.0 0.0 8.062945066975946" Properties=species:S:1:pos:R:3:momenta:R:3:energies:R:1:forces:R:3 energy=1.5513841625974853 free_energy=1.5513841625974853 stress="0.00011065090323424939 9.22191036270644e-05 -0.0007375877361203697 9.22191036270644e-05 -0.0011444960563470005 0.0016643761235286755 -0.0007375877361203697 0.0016643761235286755 0.001741644205107611" pbc="T T T"
Al      -0.06999849      -0.04288262       0.03306550       0.03595596       1.92822257       0.18326713       0.03708386       0.13434915      -0.13663941       0.29666783
Al       0.22685736       1.88047264       1.92242768      -0.29766117       0.30715318      -0.13660113       0.03329414      -0.27147101      -0.20464421       0.16021227
Al       2.36390403      -0.06211859       2.08602855      -0.00971298       1.09145877       0.12465728       0.07933448      -0.90528145       0.50729616      -0.43274417
Al       1.97869785       2.10847035      -0.26265632      -0.33744178       0.76626171      -0.86189257       0.08243624       0.52056012      -0.58777179       0.71225466
Al       0.11092697       0.00318283       4.16282207      -0.95806457       0.03337965       0.11648395       0.05641478      -0.15165725      -0.12122104      -0.63910982
Al       0.00342672       1.95969303       6.15496652       0.09029492       0.60140765      -0.40026369       0.06412620      -0.26244978       0.22274438      -0.43055816
Al       1.71499590      -0.33776498       6.13158444       1.20758713       0.21706729       1.02917992       0.10366003       0.69344094       0.47396702       0.01171498
Al       1.98484661       2.00521114       4.06625893      -1.67562564      -0.19591077      -0.30537906       0.03489863       0.14589361       0.20305052       0.29980467
Al      -0.03812914       3.87029676       0.10624851       0.03154629       0.42401049      -0.44824636       0.02323017      -0.28151834       0.48762285       0.04574775
Al      -0.08097229       6.10588586       2.12250766      -0.13884815       0.05309211      -1.10303692       0.01076971       0.25485551       0.30249622      -0.25580196
Al       2.05253377       3.89806802       1.99550510       0.76934646      -1.34834891      -0.12303630       0.05222647       0.01472447       0.40251632      -0.24697620
Al       1.90507881       5.89798033       0.03133839       0.30329547       0.77419904       0.32863424       0.00359738       0.05462442       0.12060544       0.27793904
Al       0.10045626       4.01893080       3.82471155       0.54955233      -0.14541909       0.73610907       0.02873440      -0.29090179      -0.06765516       0.46087816
Al      -0.12815303       5.84954666       5.99944350       0.47374934       1.62890723      -1.63293074       0.05491200       0.07137467       0.09873347       0.12899503
Al       1.88832244       4.02532845       6.07839110      -0.09313437      -0.81820777       1.03405029       0.04772408       0.31236326       0.18104870      -0.49025007
Al       2.19834593       5.99125535       3.96011810      -0.22259044       1.00662927       1.31193147       0.04765875      -0.66393035       0.01194071       0.13821088
Al       3.94067336      -0.03326638      -0.24503156       0.20763564      -0.04475613      -0.18402138       0.01174662      -0.18006156       0.03117299       0.24874841
Al       4.03975570       2.15619270       2.01638837       0.34054004      -1.07895027      -0.63629329       0.06419208      -0.20645391      -0.24764084      -0.11855095
Al       5.81484812       0.15432378       1.98745284      -0.38588827      -0.89709439      -1.18026517       0.06232884       0.27138349      -0.71523310       0.18756042
Al       5.96626614       1.95324416       0.15193867       0.36721403      -0.50370265       0.47161903       0.06182495       0.40370065       0.34128232      -0.15212536
Al       3.87382772       0.17885233       4.26910137      -0.04026572       0.36508384      -0.00587373       0.01765957       0.51082327      -0.17927305       0.16387898
Al       4.21576121       2.13330206       6.25809044       0.45113333      -0.59415890      -0.62886128       0.10088983      -0.40488247      -0.02530668      -0.81878063
Al       6.18175212       0.07853996       6.08839934       0.53130844       0.70577136      -0.04137793       0.03465118      -0.37585563      -0.10344421      -0.14574822
Al       6.22048689       1.95877814       3.84883572      -0.77721778       0.16508412       1.38478707       0.01092872      -0.17929449       0.35107541       0.42853449
Al       4.10105000       4.14933084      -0.02035085      -0.27584413      -0.95224134       0.59904468       0.03117503      -0.25646483      -0.16890894       0.27884369
Al       4.02043534       6.14112791       2.01230143       0.61241549      -1.30934326      -0.13098365       0.11812294       0.33669197      -0.18482935      -0.33944493
Al       6.02994249       4.24034362       2.02703102      -0.71561345      -1.21053600      -0.32788636       0.06677395       0.33288073      -0.38033589      -0.31883020
Al       5.90261719       6.15438151      -0.03820138       0.13238358      -0.45092198      -0.19976312       0.02044904       0.45495872      -0.08256258       0.05702520
Al       4.14782480       4.19280835       3.75203459      -1.29503846       0.71306222      -0.23965164       0.11904979      -0.11553159      -0.60618302       1.04793378
Al       3.96131550       5.93632504       6.00664523       1.06501687      -0.31307341      -1.05132790       0.02411839       0.16012405       0.08618610      -0.04394194
Al       6.10537063       3.96756815       6.11554176      -0.38349755      -1.30442491       1.53937809       0.03767733       0.00256168       0.02180597      -0.35336739
Al       6.02227388       6.22193260       4.11240253       0.43746912       0.38629927       0.77855001       0.00969457      -0.12955626      -0.03189529      -0.15872025
