3
Properties=species:S:1:pos:R:3:energies:R:1:forces:R:3 energy=1.8797985256903682 free_energy=1.8797985256903682 pbc="F F F"
O       -0.00000000      -0.00000000       0.20668646       0.69563182      -0.00000000       0.10135320       0.13880791
H       -0.00000000       0.82418290      -0.52075923       0.58216858      -0.00000000       0.04389869      -0.02555663
H        0.00000000      -0.82418290      -0.52075923       0.60199813       0.00000000      -0.14525189      -0.11325128
