5
Properties=species:S:1:pos:R:3:energies:R:1:forces:R:3 energy=1.7671430615015615 free_energy=1.7671430615015615 pbc="F F F"
C       -0.00000000      -0.00000000      -0.00000000      -0.19574223       0.06916607      -0.06916607       0.06676805
H        0.66482426       0.66482426       0.66482426       0.48821661       0.00496712       0.00468358       0.00508711
H       -0.66482426      -0.66482426       0.66482426       0.48821661      -0.00468358      -0.00496712       0.00508711
H        0.66482426      -0.66482426      -0.66482426       0.48829963       0.00467295      -0.00467295      -0.00416201
H       -0.66482426       0.66482426      -0.66482426       0.49815244      -0.07412257       0.07412257      -0.07278025
