4
Lattice="4.2945 0.0 0.0 0.0 4.2945 0.0 0.0 0.0 4.2945" Properties=species:S:1:pos:R:3:energies:R:1:forces:R:3 energy=0.49535166741943826 free_energy=0.49535166741943826 stress="0.0704740763502153 1.7459795452739274e-18 6.427995290076832e-18 1.7459795452739274e-18 0.0704740763502152 1.139391889707967e-18 6.427995290076832e-18 1.139391889707967e-18 0.0704740763502153" pbc="T T T"
Ag       0.00000000       0.00000000       0.00000000       0.12383792      -0.00000000      -0.00000000      -0.00000000
Ag       0.00000000       2.14725000       2.14725000       0.12383792      -0.00000000      -0.00000000       0.00000000
Ag       2.14725000       0.00000000       2.14725000       0.12383792       0.00000000       0.00000000       0.00000000
Ag       2.14725000       2.14725000       0.00000000       0.12383792       0.00000000       0.00000000       0.00000000
