2
Properties=species:S:1:pos:R:3:energies:R:1:forces:R:3 energy=0.26277797717471074 free_energy=0.26277797717471074 pbc="F F F"
N       -0.00000000       0.00000000       0.49912202       0.13138899       0.00000000      -0.00000000      -0.00837671
N        0.00000000      -0.00000000      -0.49912202       0.13138899      -0.00000000       0.00000000       0.00837671
