32
Lattice="7.179459913527401 -2.168660279737516e-17 9.308906959277333e-17 1.671758137007362e-17 7.179459913526201 4.997222562033907e-13 6.224074168794466e-17 3.215386032006919e-13 7.179459913527199" Properties=species:S:1:pos:R:3:energies:R:1:forces:R:3 energy=-0.22516675349349136 free_energy=-0.22516675349349136 stress="-6.709399014170062e-05 1.7096585327489582e-17 -1.3032524447090215e-16 1.7096585327489582e-17 -6.70939902012993e-05 6.430994216776831e-14 -1.3032524447090215e-16 6.430994216776831e-14 -6.709399015168494e-05" pbc="T T T"
Cu      -0.00000000       0.00000000       0.00000000      -0.00703646      -0.00000000      -0.00000000      -0.00000000
Cu       0.00000000       1.79486498       1.79486498      -0.00703646      -0.00000000       0.00000000       0.00000000
Cu       1.79486498       0.00000000       1.79486498      -0.00703646       0.00000000      -0.00000000       0.00000000
Cu       1.79486498       1.79486498       0.00000000      -0.00703646       0.00000000      -0.00000000      -0.00000000
Cu       0.00000000       0.00000000       3.58972996      -0.00703646      -0.00000000      -0.00000000       0.00000000
Cu      -0.00000000       1.79486498       5.38459494      -0.00703646      -0.00000000       0.00000000       0.00000000
Cu       1.79486498       0.00000000       5.38459494      -0.00703646       0.00000000      -0.00000000       0.00000000
Cu       1.79486498       1.79486498       3.58972996      -0.00703646       0.00000000      -0.00000000       0.00000000
Cu       0.00000000       3.58972996       0.00000000      -0.00703646      -0.00000000      -0.00000000      -0.00000000
Cu       0.00000000       5.38459494       1.79486498      -0.00703646      -0.00000000       0.00000000       0.00000000
Cu       1.79486498       3.58972996       1.79486498      -0.00703646      -0.00000000       0.00000000       0.00000000
Cu       1.79486498       5.38459494       0.00000000      -0.00703646       0.00000000       0.00000000      -0.00000000
Cu       0.00000000       3.58972996       3.58972996      -0.00703646      -0.00000000       0.00000000       0.00000000
Cu      -0.00000000       5.38459494       5.38459494      -0.00703646      -0.00000000       0.00000000       0.00000000
Cu       1.79486498       3.58972996       5.38459494      -0.00703646       0.00000000       0.00000000      -0.00000000
Cu       1.79486498       5.38459494       3.58972996      -0.00703646       0.00000000      -0.00000000       0.00000000
Cu       3.58972996      -0.00000000       0.00000000      -0.00703646      -0.00000000      -0.00000000      -0.00000000
Cu       3.58972996       1.79486498       1.79486498      -0.00703646       0.00000000       0.00000000       0.00000000
Cu       5.38459494       0.00000000       1.79486498      -0.00703646       0.00000000      -0.00000000       0.00000000
Cu       5.38459494       1.79486498       0.00000000      -0.00703646       0.00000000       0.00000000      -0.00000000
Cu       3.58972996       0.00000000       3.58972996      -0.00703646       0.00000000      -0.00000000       0.00000000
Cu       3.58972996       1.79486498       5.38459494      -0.00703646       0.00000000       0.00000000       0.00000000
Cu       5.38459494       0.00000000       5.38459494      -0.00703646       0.00000000      -0.00000000       0.00000000
Cu       5.38459494       1.79486498       3.58972996      -0.00703646      -0.00000000       0.00000000       0.00000000
Cu       3.58972996       3.58972996       0.00000000      -0.00703646       0.00000000       0.00000000      -0.00000000
Cu       3.58972996       5.38459494       1.79486498      -0.00703646       0.00000000      -0.00000000       0.00000000
Cu       5.38459494       3.58972996       1.79486498      -0.00703646      -0.00000000       0.00000000       0.00000000
Cu       5.38459494       5.38459494       0.00000000      -0.00703646       0.00000000       0.00000000      -0.00000000
Cu       3.58972996       3.58972996       3.58972996      -0.00703646       0.00000000       0.00000000       0.00000000
Cu       3.58972996       5.38459494       5.38459494      -0.00703646      -0.00000000      -0.00000000      -0.00000000
Cu       5.38459494       3.58972996       5.38459494      -0.00703646      -0.00000000       0.00000000      -0.00000000
Cu       5.38459494       5.38459494       3.58972996      -0.00703646       0.00000000      -0.00000000      -0.00000000
