108
Lattice="10.8 0.0 0.0 0.0 10.8 0.0 0.0 0.0 10.8" Properties=species:S:1:pos:R:3:momenta:R:3:energies:R:1:forces:R:3 energy=-0.24128770828465385 free_energy=-0.24128770828465385 stress="0.005458643086617216 2.3290522516875886e-05 -2.6075671909629654e-05 2.3290522516875886e-05 0.0054266655045993465 7.733879784297357e-05 -2.6075671909629654e-05 7.733879784297357e-05 0.005537244926269601" pbc="T T T"
Cu      -0.01200108       0.00318841       0.00788244      -0.70832991       0.17778257       0.51170187      -0.00622001       0.19995856      -0.08584383       0.00981797
Cu       0.01303917       1.79445146       1.81865729       0.82474159      -0.28707880       1.09875324      -0.00009158      -0.05396556       0.21297963      -0.32506364
Cu       1.77882079      -0.01569292       1.81031396      -1.33578570      -1.03741246       0.58224386      -0.00190225       0.10304740      -0.06624490      -0.25450567
Cu       1.82427836       1.81666142      -0.01720748       1.50999647       1.05524851      -1.04587675      -0.00267366      -0.17953327      -0.06865447       0.19959542
Cu      -0.00752365       0.01909370       3.57929131      -0.48911652       1.11954070      -1.28443715      -0.00232783      -0.00958367      -0.34580536       0.16823439
Cu       0.00441376       1.78489897       5.40999362       0.34885263      -0.94769554       0.60117542       0.00124742       0.19144003       0.08809794      -0.13782010
Cu       1.78513193      -0.01121610       5.41263014      -0.93398621      -0.72200113       0.79990261      -0.00472571       0.08684251       0.01397254      -0.05193078
Cu       1.80565778       1.76810922       3.59206313       0.32730771      -1.94562768      -0.46848868       0.00112050      -0.11954753       0.35409333       0.13239435
Cu      -0.02698290       0.01216089       7.21430054      -1.67005598       0.74476035       0.94143720      -0.00400502       0.22684597      -0.12834719       0.04693732
Cu       0.00349114       1.77581323       9.02769903       0.22883549      -1.50168493       1.75207857      -0.00493809       0.00920890       0.18792318      -0.11832812
Cu       1.85558195       0.01656362       8.97990275       3.47037646       1.02013511      -1.24628036      -0.00056629      -0.37335733      -0.14882506       0.15698762
Cu       1.80957057       1.81829391       7.19881602       0.61994586       1.15061024      -0.07623080      -0.00919819       0.00101262      -0.09965063       0.00061210
Cu      -0.01514952       3.62898609      -0.00063172      -0.91598594       1.79382109       0.04972875      -0.00148699       0.19422279      -0.24648790       0.27160312
Cu      -0.00601717       5.41042636       1.84900409      -0.38468757       0.62525970       3.04667748      -0.00090740       0.01306826      -0.15369339      -0.37063999
Cu       1.80614303       3.60775484       1.82806217       0.38713005       0.48594234       1.74096380      -0.00866669      -0.03103483      -0.04847877      -0.22129735
Cu       1.80645632       5.42362556      -0.00633490       0.42485547       1.45038702      -0.35257760      -0.00792417       0.02312459      -0.23420137       0.16982215
Cu      -0.03261673       3.59099461       3.60370148      -1.99373601      -0.58042326       0.24717932      -0.00102550       0.35393434       0.01152583       0.02246620
Cu      -0.00311060       5.38014893       5.40781161      -0.21329736      -1.20082024       0.49106910      -0.00416341      -0.03981215       0.25274012      -0.04495316
Cu       1.78041899       3.63427416       5.40177223      -1.19371608       2.13189619       0.09247279      -0.00247030       0.22284346      -0.25690367      -0.06502789
Cu       1.82093373       5.38969162       3.60572844       1.30533380      -0.60217709       0.38443221       0.00006956      -0.14812679       0.19948635       0.03964606
Cu       0.00425744       3.59525305       7.16308487       0.24663852      -0.29818089      -2.25484820       0.00121501      -0.08435397       0.02766923       0.39778228
Cu      -0.00771141       5.38890904       9.03060034      -0.49486125      -0.69548630       1.86555378       0.00257070       0.01360750       0.06771080      -0.34131035
Cu       1.79495271       3.60645977       9.00010214      -0.30449925       0.41541672       0.01354712      -0.00746356       0.06335730      -0.00788346       0.02164872
Cu       1.79294686       5.40186452       7.21773726      -0.45321341       0.11438856       1.13864977      -0.00749599       0.00847089      -0.02025737      -0.02809456
Cu       0.02280394       7.20454303      -0.00768257       1.36804438       0.25392418      -0.49287202      -0.00046844      -0.32274194      -0.11842165       0.01242820
Cu      -0.02833009       8.97604166       1.80859549      -1.80818149      -1.46047399       0.53607363      -0.00307670       0.07836670       0.27347128      -0.05998774
Cu       1.75519117       7.19558438       1.80501247      -2.79146181      -0.31552698       0.32150694       0.00160554       0.32493488      -0.08748595      -0.00752859
Cu       1.80749837       8.96585373       0.00813882       0.47244131      -2.11829555       0.48904961      -0.00924520      -0.03525827       0.27032665      -0.11049804
Cu      -0.00694077       7.18920455       3.59103092      -0.40697145      -0.66955032      -0.46701123       0.00122972       0.12172949       0.08946569       0.34129741
Cu       0.02197364       9.01137158       5.40260586       1.39476432       0.73149121       0.11146029      -0.00695553      -0.08306703      -0.01556460      -0.16798374
Cu       1.83417221       7.19243301       5.42532177       2.10751323      -0.47583362       1.58694723      -0.00645546      -0.30843404       0.04308914      -0.15271915
Cu       1.84258355       8.98214484       3.57565407       2.60821381      -1.11199536      -1.52502389       0.00333099      -0.44285599       0.13223627       0.14913125
Cu      -0.01234705       7.23935224       7.19751141      -0.75121861       2.43394093      -0.15981954      -0.00151735       0.14556184      -0.33366433       0.00188363
Cu      -0.01071532       8.99748920       9.01510176      -0.64146546      -0.13774263       0.95672711      -0.00432065       0.15349474       0.07035908      -0.06253160
Cu       1.79716286       7.18108344       9.00047487      -0.16555750      -1.16948711       0.00900961      -0.00400491       0.05320558       0.16382580      -0.06625773
Cu       1.80157821       9.00560708       7.22587546       0.12635213       0.34650715       1.63459063      -0.00496948       0.06897540      -0.04917721      -0.11690222
Cu       3.59465217      -0.01515927      -0.00182132      -0.33583817      -0.96950346      -0.09432420      -0.00308966       0.02680796       0.03533103       0.07139729
Cu       3.60024377       1.76914906       1.79420256      -0.00030621      -1.90465444      -0.37837799      -0.00537186      -0.04905856       0.27377634      -0.01419011
Cu       5.39298465       0.00798712       1.81599757      -0.45334557       0.46434466       0.98552871       0.00016785       0.00177373      -0.16047941      -0.15070614
Cu       5.40953751       1.80301342       0.00012475       0.56095653       0.14021499      -0.03668762       0.00119617      -0.17368882      -0.16403429      -0.13649610
Cu       3.56777241       0.02426469       3.58865317      -2.00262886       1.44921774      -0.71530606       0.00413064       0.24862806      -0.36472772       0.05858138
Cu       3.60277381       1.80249710       5.36266859       0.15653759       0.18176112      -2.32857202      -0.00369926      -0.06666500       0.05990782       0.26169999
Cu       5.42603285       0.01194248       5.38833448       1.61235735       0.73723121      -0.72217383      -0.00714029      -0.21537537      -0.10600469       0.10148523
Cu       5.39740708       1.76378807       3.59395510      -0.16600789      -2.20479149      -0.38878055       0.00232091       0.00562452       0.41298172       0.00755283
Cu       3.60245098      -0.00433353       7.17738456       0.17848228      -0.26120456      -1.49393498      -0.00352259       0.06054501       0.05716309      -0.09222741
Cu       3.63196693       1.78436171       9.02148256       2.04814319      -0.95960891       1.33124273       0.00057353      -0.05833940       0.15737470      -0.17631992
Cu       5.40818022      -0.00491123       8.95686351       0.48387363      -0.32837427      -2.68456505       0.00394817      -0.14025794      -0.03340577       0.31792126
Cu       5.39183846       1.81158552       7.19629818      -0.52930831       0.73725173      -0.26023935      -0.00477154      -0.00335441      -0.03731648      -0.06207342
Cu       3.61639207       3.59666731      -0.00476864       1.01747130      -0.18563221      -0.30086008      -0.00554369      -0.12765512       0.09031512       0.02136598
Cu       3.61595834       5.40618729       1.79718670       0.97922035       0.40555558      -0.17003432      -0.00654914      -0.15959701       0.01375705       0.03726575
Cu       5.38989723       3.59601657       1.78281975      -0.65335422      -0.23106401      -1.03307707      -0.00870693       0.00058029       0.08144939       0.23319540
Cu       5.38191148       5.42850937      -0.00468206      -1.08130193       1.77158984      -0.25525304       0.00085764       0.26809298      -0.21903496       0.14653962
Cu       3.58617751       3.62499536       3.61660695      -0.81570503       1.55361629       1.03041920      -0.00186100       0.23490571      -0.18942369      -0.12937946
Cu       3.62633618       5.42436375       5.39839671       1.67273538       1.53766888      -0.13352186       0.00055485      -0.09629373      -0.11646410      -0.09802772
Cu       5.40286395       3.61110376       5.39692746       0.18309841       0.70992886      -0.22694693      -0.00593767      -0.00634842      -0.02621546      -0.08167895
Cu       5.42421870       5.43870516       3.57879767       1.49822960       2.38895849      -1.27747991       0.00407453      -0.21500146      -0.35969041       0.28763488
Cu       3.59859644       3.59473154       7.21601291      -0.11425126      -0.32737707       0.99842706      -0.00899697      -0.06949732       0.04051354      -0.11106544
Cu       3.62871046       5.43209795       9.01645758       1.74749970       1.97323070       1.04397062       0.00742931      -0.33685972      -0.31528499      -0.06273923
Cu       5.40508540       3.63209188       8.99328410       0.33726453       2.00818121      -0.39714114      -0.00622992       0.02124592      -0.20413372       0.11259838
Cu       5.35191469       5.39516630       7.18406456      -2.96551485      -0.30889591      -1.01811067       0.00519737       0.44230251       0.00881625       0.04139844
Cu       3.61254465       7.19776540       0.00982119       0.76802287      -0.13316297       0.63200053       0.00113355      -0.13165774       0.03377457      -0.01317006
Cu       3.60589717       8.95765082       1.78768409       0.36411154      -2.63546248      -0.75668022       0.00163912      -0.05437647       0.31325350       0.12079307
Cu       5.40374837       7.19083046       1.83536050       0.26784369      -0.53838581       2.16285722       0.00950804       0.07149946       0.16958641      -0.38268230
Cu       5.35711995       9.00951429       0.01516107      -2.63342087       0.58753189       0.93707910      -0.00681231       0.42496448      -0.08253081      -0.13058412
Cu       3.59216173       7.22482289       3.59344695      -0.45821578       1.50953688      -0.41490381       0.00198076       0.14927785      -0.29891555       0.02574505
Cu       3.61227041       8.98944450       5.35442500       0.79725804      -0.62463588      -2.83865998      -0.00587575       0.01255486       0.17898454       0.32894387
Cu       5.43055577       7.24598742       5.41647958       1.90402417       2.87766913       1.02177326      -0.00133373      -0.22211527      -0.29837526      -0.13286129
Cu       5.43081541       9.00838936       3.57853962       1.92064232       0.57021236      -1.36181750      -0.00693619      -0.21745457       0.07865880       0.08248986
Cu       3.60175427       7.16475975       7.19891739       0.10226535      -2.15091141      -0.06971501       0.00419789      -0.03458947       0.39007484       0.00482820
Cu       3.62419561       8.99670911       8.98976895       1.51118220      -0.24578766      -0.65006845      -0.00459098      -0.16311409      -0.09728184       0.03593782
Cu       5.38635315       7.17236248       8.99036679      -0.82062458      -1.68013351      -0.62026578       0.00133679       0.19092724       0.32727940       0.00599047
Cu       5.39516216       8.99886253       7.20517227      -0.31938029      -0.07987886       0.29785764      -0.00055594      -0.01715297      -0.01857985      -0.11044781
Cu       7.20528443      -0.00975899      -0.01172906       0.27594670      -0.65166360      -0.73621966      -0.00236170      -0.19682307      -0.06103371       0.07015180
Cu       7.15347871       1.80027011       1.76000958      -2.90084885       0.00234349      -2.42995715       0.00593300       0.32523801      -0.05180482       0.47360550
Cu       8.99167938       0.01677682       1.77456882      -0.54414191       1.04685140      -1.58542837      -0.00695764      -0.01641819      -0.11366390       0.17939008
Cu       8.97061675       1.81855567       0.01947036      -1.81305744       1.16267328       1.25366222       0.00197130       0.26700600      -0.11880150      -0.01896308
Cu       7.20559806       0.02347045       3.62191048       0.41936954       1.51701103       1.34739700      -0.00053294       0.17240839      -0.00754236      -0.21160919
Cu       7.20375879       1.82195929       5.40046838       0.21697262       1.38746329       0.04363421       0.00161459      -0.08347510      -0.10254447       0.04059810
Cu       8.99819575       0.04347246       5.40821545      -0.12062433       2.70135623       0.50875272      -0.00405690      -0.01274146      -0.33253762      -0.06865478
Cu       9.04037523       1.81172675       3.60004168       2.46869942       0.72603874      -0.05984955       0.00270642      -0.42977807      -0.10311643      -0.18249537
Cu       7.19614606      -0.00459727       7.20718819      -0.18981065      -0.27138379       0.40546476      -0.00636365       0.17832567       0.07641867      -0.18332681
Cu       7.18416494       1.75071100       9.00502683      -0.97637008      -3.08461485       0.28736684      -0.00540956       0.14565080       0.31649676      -0.11082955
Cu       9.00879530      -0.01859670       9.03083078       0.54583153      -1.13766980       1.91114058       0.00154717      -0.06936626       0.19700717      -0.24916617
Cu       9.03259000       1.81656085       7.18120377       2.01026760       1.04371846      -1.09676844       0.00234053      -0.29497523      -0.07916248       0.35795550
Cu       7.19915730       3.56197844       0.01314388      -0.10537523      -2.32643139       0.78246072       0.00363611      -0.15163273       0.40624373      -0.20725978
Cu       7.20114426       5.40847105       1.79233376       0.07957647       0.54237297      -0.53380681      -0.00379441       0.01521389      -0.01643111      -0.11403318
Cu       8.96852527       3.63239203       1.81379084      -1.97850320       2.00227795       0.86082843      -0.00145672       0.17346560      -0.27932026      -0.09610988
Cu       8.99594010       5.37747888      -0.01443034      -0.27745821      -1.36393846      -0.87486884      -0.00259616      -0.05050651       0.27928230       0.17490858
Cu       7.20701251       3.61036741       3.61218080       0.38530471       0.63443084       0.74078839      -0.00858240      -0.20550791      -0.10543888      -0.14020785
Cu       7.21819499       5.41596498       5.42854929       1.13068107       0.98442260       1.82199913      -0.00888982      -0.13985310      -0.14610111      -0.07709542
Cu       8.98705474       3.56002008       5.38613846      -0.82174541      -2.48229674      -0.83590838       0.00378209       0.05122974       0.31708793       0.18269126
Cu       9.00475205       5.37192481       3.61317331       0.26176437      -1.72529521       0.86114652       0.00099105      -0.13800755       0.27549133       0.03091634
Cu       7.18762813       3.58799892       7.21772070      -0.76211423      -0.75247388       1.14042690      -0.00789445       0.11574547       0.07098124      -0.02010980
Cu       7.19492022       5.40452956       9.00048951      -0.33889533       0.24451821       0.02632750      -0.00400244      -0.02866784      -0.14380349      -0.01581839
Cu       8.99961141       3.57721589       9.03436600      -0.04281141      -1.46967765       2.10975559      -0.00318264      -0.05423525       0.01358631      -0.34123963
Cu       8.99462326       5.39599345       7.21151006      -0.30839918      -0.30922845       0.72067793      -0.00661052       0.11824443      -0.15067297      -0.07291326
Cu       7.19463449       7.20292372      -0.02856738      -0.36009501       0.21320905      -1.78067092      -0.00873299      -0.03902475       0.06938195       0.19909856
Cu       7.20555364       9.02424709       1.80716259       0.35934013       1.51017607       0.42670570      -0.00869347       0.00241159      -0.17321081      -0.11005650
Cu       9.02309226       7.21493989       1.79891944       1.39144894       0.90152660      -0.09031158      -0.00582760      -0.30997853      -0.19709245      -0.06136560
Cu       8.97719274       8.97991476      -0.03570173      -1.42915464      -1.30501187      -2.22906224       0.00323788       0.13929482      -0.01910777       0.24487013
Cu       7.17323213       7.16928704       3.59650009      -1.59703569      -1.91735809      -0.21854494       0.00617192       0.41426412       0.21821245       0.02934261
Cu       7.18804897       8.99897132       5.38669055      -0.70827977      -0.04391616      -0.81693993      -0.00139564       0.19704429       0.07151009       0.13308408
Cu       9.00961100       7.19776352       5.38923290       0.60250318      -0.14871154      -0.67846132      -0.00392257      -0.05721705      -0.01295594       0.05592122
Cu       8.97668320       8.98582927       3.61690887      -1.47243840      -0.85452695       1.08354236      -0.00517118       0.10857429       0.18313709      -0.03339447
Cu       7.19513475       7.19886958       7.20796967      -0.31768152      -0.06664778       0.50440227      -0.00429541      -0.00826719       0.02075169      -0.03263102
Cu       7.20491497       9.01597510       8.98199635       0.26784089       0.96816186      -1.13900739      -0.00454471      -0.14660421      -0.19554353       0.07387233
Cu       8.99273657       7.17395595       8.96493840      -0.44497723      -1.63441281      -2.18892827       0.00063332       0.07488107       0.15500570       0.24050289
Cu       9.00382356       8.98909334       7.18476687       0.21703864      -0.65108839      -0.98487036      -0.00642230      -0.09277732       0.16481031       0.00274768
