1
Lattice="0.0 2.04 2.04 2.04 0.0 2.04 2.04 2.04 0.0" Properties=species:S:1:pos:R:3:energies:R:1:forces:R:3 energy=0.00260635118230379 free_energy=0.00260635118230379 stress="0.018190318952434722 -9.669516883972074e-17 -2.8182587787855298e-18 -9.669516883972074e-17 0.018190318952434722 -2.547886884787378e-17 -2.8182587787855298e-18 -2.547886884787378e-17 0.01819031895243514" pbc="T T T"
Au       0.00000000       0.00000000       0.00000000       0.00260635       0.00000000       0.00000000       0.00000000
