16
Lattice="5.1123820279787395 0.0 0.0 2.5561910139893698 4.427452710080594 0.0 0.0 0.0 26.261363669361494" Properties=species:S:1:pos:R:3:move_mask:L:1:tags:I:1:energies:R:1:forces:R:3 energy=2.831863742534429 free_energy=2.831863742534429 stress="0.0058964068436485086 2.6150782124062638e-18 -1.2964373931406269e-17 2.6150782124062638e-18 0.005896406843648461 -1.3828766282924838e-17 -1.2964373931406269e-17 -1.3828766282924838e-17 0.0018763188872562527" pbc="T T F"
Cu       0.00000000       0.00000000      10.00000000  F        4       0.35157336       0.00000000      -0.00000000       0.13822173
Cu       2.55619101       0.00000000      10.00000000  F        4       0.35157336       0.00000000       0.00000000       0.13822173
Cu       1.27809551       2.21372636      10.00000000  F        4       0.35157336      -0.00000000       0.00000000       0.13822173
Cu       3.83428652       2.21372636      10.00000000  F        4       0.35157336      -0.00000000       0.00000000       0.13822173
Cu       1.27809551       0.73790879      12.08712122  F        3       0.00285984       0.00000000       0.00000000      -0.14564633
Cu       3.83428652       0.73790879      12.08712122  F        3       0.00285984       0.00000000      -0.00000000      -0.14564633
Cu       2.55619101       2.95163514      12.08712122  F        3       0.00285984      -0.00000000       0.00000000      -0.14564633
Cu       5.11238203       2.95163514      12.08712122  F        3       0.00285984      -0.00000000      -0.00000000      -0.14564633
Cu      -0.00000000       1.47581757      14.14898367  T        2       0.00449192       0.00000000       0.00000000       0.01017577
Cu       2.55619101       1.47581757      14.14898367  T        2       0.00449192      -0.00000000       0.00000000       0.01017577
Cu       1.27809551       3.68954393      14.14898367  T        2       0.00449192       0.00000000      -0.00000000       0.01017577
Cu       3.83428652       3.68954393      14.14898367  T        2       0.00449192      -0.00000000      -0.00000000       0.01017577
Cu      -0.00000000      -0.00000000      16.20413546  T        1       0.34904081      -0.00000000       0.00000000      -0.00275117
Cu       2.55619101      -0.00000000      16.20413546  T        1       0.34904081      -0.00000000       0.00000000      -0.00275117
Cu       1.27809551       2.21372636      16.20413546  T        1       0.34904081       0.00000000      -0.00000000      -0.00275117
Cu       3.83428652       2.21372636      16.20413546  T        1       0.34904081      -0.00000000      -0.00000000      -0.00275117
