2
Properties=species:S:1:pos:R:3:energies:R:1:forces:R:3 energy=1.5461139951321483 free_energy=1.5461139951321483 pbc="F F F"
H        0.00000000       0.00000000       0.00000000       0.77305700       0.00000000       0.00000000       6.62233413
H        0.00000000       0.00000000       0.90000000       0.77305700       0.00000000       0.00000000      -6.62233413
