14
Lattice="5.5437171645025325 0.0 0.0 2.7718585822512662 4.800999895855028 0.0 0.0 0.0 24.526426110446664" Properties=species:S:1:pos:R:3:move_mask:L:1:tags:I:1:energies:R:1:forces:R:3 energy=2.810220133202024 free_energy=2.810220133202024 stress="0.00950158220101042 2.6608970847156903e-18 3.6830415373778226e-17 2.6608970847156903e-18 0.00950158220101038 -4.244204581505498e-17 3.6830415373778226e-17 -4.244204581505498e-17 -0.0001537114494336355" pbc="T T F"
Pt       1.38592929       0.80016665      10.00000000  F        3       0.30271328       0.01541796       0.00890156      -0.00527755
Pt       4.15778787       0.80016665      10.00000000  F        3       0.30271328      -0.01541796       0.00890156      -0.00527755
Pt       2.77185858       3.20066660      10.00000000  F        3       0.30271328      -0.00000000      -0.01780313      -0.00527755
Pt       5.54371716       3.20066660      10.00000000  F        3       0.30237045       0.00000000       0.00000000      -0.04792644
Pt      -0.00000000       1.60170729      12.20386834  T        2       0.01878858       0.00000000       0.02442284       0.00182504
Pt       2.77185858       1.60033330      12.21864354  T        2       0.01523296      -0.00000000      -0.00000000      -0.04104655
Pt       1.38473938       4.00014625      12.20386834  T        2       0.01878858      -0.02115080      -0.01221142       0.00182504
Pt       4.15897778       4.00014625      12.20386834  T        2       0.01878858       0.02115080      -0.01221142       0.00182504
Pt      -0.00000000       0.00000000      14.40374298  T        1       0.30717901       0.00000000       0.00000000       0.04463038
Pt       2.77185858      -0.00370955      14.42271886  T        1       0.30058785      -0.00000000       0.01632788       0.01171194
Pt       1.38271673       2.40235472      14.42271886  T        1       0.30058785       0.01414036      -0.00816394       0.01171194
Pt       4.16100044       2.40235472      14.42271886  T        1       0.30058785      -0.01414036      -0.00816394       0.01171194
C       -0.00000000       0.00000000      16.46196163  T        0      -0.20675606       0.00000000       0.00000000       0.27958112
O        0.00000000       0.00000000      17.61196163  T        0       0.52592464       0.00000000      -0.00000000      -0.26001682
