16
Lattice="5.076930199151399 0.0 0.0 2.5384650995756997 4.3967505257055 0.0 0.0 0.0 26.217944223823757" Properties=species:S:1:pos:R:3:move_mask:L:1:tags:I:1:energies:R:1:forces:R:3 energy=2.7962854055341744 free_energy=2.7962854055341744 stress="0.0015494340557465906 4.6609777208816646e-17 2.630936086898025e-17 4.6609777208816646e-17 0.0015494340557464935 -4.106681276841339e-17 2.630936086898025e-17 -4.106681276841339e-17 0.0007814499014657259" pbc="T T F"
Cu       0.00000000       0.00000000      10.00000000  F        4       0.34744973       0.00000000       0.00000000       0.03470221
Cu       2.53846510       0.00000000      10.00000000  F        4       0.34744973      -0.00000000       0.00000000       0.03470221
Cu       1.26923255       2.19837526      10.00000000  F        4       0.34744973      -0.00000000      -0.00000000       0.03470221
Cu       3.80769765       2.19837526      10.00000000  F        4       0.34744973       0.00000000      -0.00000000       0.03470221
Cu       1.26923255       0.73279175      12.07264807  F        3       0.00201428       0.00000000      -0.00000000      -0.02077641
Cu       3.80769765       0.73279175      12.07264807  F        3       0.00201428      -0.00000000       0.00000000      -0.02077641
Cu       2.53846510       2.93116702      12.07264807  F        3       0.00201428       0.00000000      -0.00000000      -0.02077641
Cu       5.07693020       2.93116702      12.07264807  F        3       0.00201428      -0.00000000       0.00000000      -0.02077641
Cu      -0.00000000       1.46558351      14.14831360  T        2       0.00246747       0.00000000      -0.00000000      -0.00739111
Cu       2.53846510       1.46558351      14.14831360  T        2       0.00246747      -0.00000000      -0.00000000      -0.00739111
Cu       1.26923255       3.66395877      14.14831360  T        2       0.00246747       0.00000000       0.00000000      -0.00739111
Cu       3.80769765       3.66395877      14.14831360  T        2       0.00246747      -0.00000000       0.00000000      -0.00739111
Cu       0.00000000      -0.00000000      16.21460344  T        1       0.34713987       0.00000000       0.00000000      -0.00653469
Cu       2.53846510       0.00000000      16.21460344  T        1       0.34713987      -0.00000000      -0.00000000      -0.00653469
Cu       1.26923255       2.19837526      16.21460344  T        1       0.34713987      -0.00000000       0.00000000      -0.00653469
Cu       3.80769765       2.19837526      16.21460344  T        1       0.34713987       0.00000000       0.00000000      -0.00653469
