8
Lattice="0.0 4.09 4.09 4.09 0.0 4.09 4.09 4.09 0.0" Properties=species:S:1:pos:R:3:momenta:R:3:energies:R:1:forces:R:3 energy=0.6116998548757966 free_energy=0.6116998548757966 stress="-0.003724927225192884 -0.007097514647176747 0.0021829305661616332 -0.007097514647176747 -0.019762101899879075 -0.002924143353344633 0.0021829305661616332 -0.002924143353344633 -0.009313186351597886" pbc="T T T"
Ag      -0.04069878      -0.08098350      -0.18825733       2.96600194       0.42061653      -2.05980717       0.11825699       0.61928433       0.56273674       0.93338009
Ag       2.21831697       2.16349563       0.13829091      -2.32895210       1.39212919      -0.64077196       0.10048852      -1.19101003      -0.74162932      -0.39430122
Ag       2.02518577      -0.05333475       1.92957556       2.56356273       0.40439558       1.27851962       0.05478693      -0.33037776       0.53111900       0.65892801
Ag       4.06085545       1.98829158       2.19871128      -0.70758476      -1.15889207      -3.39547892       0.06619430       0.32975232       0.35852529      -0.61028771
Ag      -0.06374142       1.98033641       2.08980756      -5.26671812      -3.19334433       0.06572772       0.06527481       0.74768340       0.06577312      -0.48571310
Ag       2.02710895       4.15348151       1.98857137       0.02277532      -0.00348887       2.36381791       0.04797511      -0.12682637      -0.19252180       0.25434428
Ag       2.13101364       2.12482007       4.20531068       3.38272769       1.23398050      -0.25193737       0.10102632      -0.80789498      -0.79534205      -0.86614768
Ag       4.00195942       4.08389305       3.99798997      -0.63181270       0.90460348       2.63993017       0.05769686       0.75938908       0.21133903       0.50979734
