16
Lattice="3.1983983587750613 0.0 0.0 1.5991991793875306 2.7698942301216576 0.0 0.0 0.0 23.917221986577033" Properties=species:S:1:pos:R:3:move_mask:L:1:tags:I:1:energies:R:1:forces:R:3 energy=268.746047467861 free_energy=268.746047467861 stress="-3.1174944883251277 -9.9213900269621e-16 1.6701580929677746e-16 -9.9213900269621e-16 -3.117494488325116 6.334053361430672e-16 1.6701580929677746e-16 6.334053361430672e-16 -0.9460596214984495" pbc="T T F"
Cu       0.00000000       0.00000000      10.00000000  F        4      19.78747287      -0.00000000      -0.00000007     -38.42302373
Cu       1.59919918       0.00000000      10.00000000  F        4      19.78747288       0.00000000      -0.00000004     -38.42302378
Cu       0.79959959       1.38494712      10.00000000  F        4      19.78747287       0.00000002       0.00000005     -38.42302368
Cu       2.39879877       1.38494712      10.00000000  F        4      19.78747287      -0.00000002       0.00000005     -38.42302367
Cu       0.79959959       0.46164904      11.30574066  F        3      18.05993771       0.00000021      -0.00000039      38.43777707
Cu       2.39879877       0.46164904      11.30574066  F        3      18.05993774      -0.00000021      -0.00000042      38.43777676
Cu       1.59919918       1.84659615      11.30574066  F        3      18.05993804      -0.00000002       0.00000028      38.43777264
Cu       3.19839836       1.84659615      11.30574066  F        3      18.05993790       0.00000002       0.00000052      38.43777449
Cu      -0.00000001       0.92329817      13.09790734  T        2      13.82663717       0.00000490      -0.00004692       0.00075113
Cu       1.59919919       0.92329824      13.09790734  T        2      13.82663725      -0.00000490      -0.00008361       0.00075014
Cu       0.79959965       2.30824507      13.09790734  T        2      13.82663723      -0.00003177       0.00006244       0.00075042
Cu       2.39879871       2.30824506      13.09790734  T        2      13.82663726       0.00003177       0.00006809       0.00075002
Cu       0.00000002      -0.00000006      14.99341139  T        1      15.51246387      -0.00001113       0.00002999      -0.01550237
Cu       1.59919916       0.00000000      14.99341139  T        1      15.51246376       0.00001113      -0.00000222      -0.01550342
Cu       0.79959964       1.38494713      14.99341139  T        1      15.51246401      -0.00002790      -0.00000746      -0.01550109
Cu       2.39879872       1.38494715      14.99341138  T        1      15.51246403       0.00002790      -0.00002031      -0.01550092
