50
Lattice="11.087434329005065 0.0 0.0 5.5437171645025325 9.601999791710057 0.0 0.0 0.0 24.526426110446664" Properties=species:S:1:pos:R:3:tags:I:1:energies:R:1:forces:R:3 energy=10.488628035078417 free_energy=10.488628035078417 stress="0.010192867035310815 -4.539347766718967e-18 3.062830791930396e-17 -4.539347766718967e-18 0.010192867035310867 -8.54100363209666e-18 3.062830791930396e-17 -8.54100363209666e-18 -0.0009033200564560759" pbc="T T F"
Pt       1.38833303       0.80155445      10.01839078        3       0.30462659      -0.01288616      -0.00743983       0.01625453
Pt       4.15929165       0.79962723      10.03118023        3       0.30294743      -0.00116877       0.00008240       0.00860399
Pt       6.92814268       0.79962723      10.03118023        3       0.30294743       0.00116877       0.00008240       0.00860399
Pt       9.69910130       0.80155445      10.01839078        3       0.30462659       0.01288616      -0.00743983       0.01625453
Pt       2.77214332       3.20223862      10.03118023        3       0.30294743      -0.00051302      -0.00105338       0.00860399
Pt       5.54371716       3.20066660      10.04335505        3       0.30140950      -0.00000000      -0.00000000      -0.03429614
Pt       8.31529101       3.20223862      10.03118023        3       0.30294743       0.00051302      -0.00105338       0.00860399
Pt      11.08743433       3.20020731      10.02159222        3       0.30427003       0.00000000       0.01306355       0.03013772
Pt       4.15656883       5.60013395      10.03118023        3       0.30294743       0.00065575       0.00097098       0.00860399
Pt       6.93086550       5.60013395      10.03118023        3       0.30294743      -0.00065575       0.00097098       0.00860399
Pt       9.70208542       5.60150163      10.03103647        3       0.30282298       0.00291226       0.00168140      -0.00197588
Pt      12.47278323       5.60150163      10.03103647        3       0.30282298      -0.00291226       0.00168140      -0.00197588
Pt       5.54371716       7.99889090      10.01839078        3       0.30462659      -0.00000000       0.01487966       0.01625453
Pt       8.31517799       8.00189614      10.02159222        3       0.30427003       0.01131337      -0.00653178       0.03013772
Pt      11.08743433       8.00099632      10.03103647        3       0.30282298      -0.00000000      -0.00336279      -0.00197588
Pt      13.85969067       8.00189614      10.02159222        3       0.30427003      -0.01131337      -0.00653178       0.03013772
Pt      -0.00000000       1.60298546      12.22703702        2       0.01645610       0.00000000       0.00481606       0.00264599
Pt       2.76812261       1.59817633      12.23512170        2       0.01682195       0.02815203       0.01625358       0.02419192
Pt       5.54371716       1.60134907      12.24868714        2       0.01670099       0.00000000      -0.03557784      -0.00375910
Pt       8.31931172       1.59817633      12.23512170        2       0.01682195      -0.02815203       0.01625358       0.02419192
Pt       1.38597248       4.00281746      12.23984597        2       0.01627184      -0.00325734      -0.01352558       0.01007233
Pt       4.15866756       4.00032536      12.24868714        2       0.01670099      -0.03081132       0.01778892      -0.00375910
Pt       6.92876677       4.00032536      12.24868714        2       0.01670099       0.03081132       0.01778892      -0.00375910
Pt       9.70146185       4.00281746      12.23984597        2       0.01627184       0.00325734      -0.01352558       0.01007233
Pt       2.77016180       6.40030369      12.23984597        2       0.01627184       0.01008483       0.00958373       0.01007233
Pt       5.54371716       6.40564713      12.23512170        2       0.01682195      -0.00000000      -0.03250717       0.02419192
Pt       8.31727253       6.40030369      12.23984597        2       0.01627184      -0.01008483       0.00958373       0.01007233
Pt      11.08743433       6.40133319      12.24499777        2       0.01760729       0.00000000       0.00000000      -0.01068266
Pt       4.15549104       8.80050706      12.22703702        2       0.01645610      -0.00417083      -0.00240803       0.00264599
Pt       6.93194329       8.80050706      12.22703702        2       0.01645610       0.00417083      -0.00240803       0.00264599
Pt       9.70324501       8.80087844      12.23984597        2       0.01627184      -0.01334216       0.00394185       0.01007233
Pt      12.47162365       8.80087844      12.23984597        2       0.01627184       0.01334216       0.00394185       0.01007233
Pt       0.00000000       0.00000000      14.43320971        1       0.29732493       0.00000000      -0.00000000      -0.02429999
Pt       2.77185446       0.00108136      14.44745255        1       0.30191285       0.00561594      -0.01077685      -0.00783623
Pt       5.54371716      -0.00377373      14.45891593        1       0.30491153       0.00000000       0.01215209      -0.04262509
Pt       8.31557987       0.00108136      14.44745255        1       0.30191285      -0.00561594      -0.01077685      -0.00783623
Pt       1.38686371       2.39995570      14.44745255        1       0.30191285      -0.00652505       0.01025197      -0.00783623
Pt       4.15625145       2.39961289      14.45464487        1       0.30438212      -0.00213958      -0.00123529      -0.01658011
Pt       6.93118288       2.39961289      14.45464487        1       0.30438212       0.00213958      -0.00123529      -0.01658011
Pt       9.70057062       2.39995570      14.44745255        1       0.30191285       0.00652505       0.01025197      -0.00783623
Pt       2.76859044       4.80288676      14.45891593        1       0.30491153       0.01052402      -0.00607604      -0.04262509
Pt       5.54371716       4.80277400      14.45464487        1       0.30438212       0.00000000       0.00247057      -0.01658011
Pt       8.31884389       4.80288676      14.45891593        1       0.30491153      -0.01052402      -0.00607604      -0.04262509
Pt      11.08743433       4.80078792      14.45436276        1       0.30342034       0.00000000      -0.00642350      -0.01541841
Pt       4.15872642       7.20096273      14.44745255        1       0.30191285      -0.01214099       0.00052488      -0.00783623
Pt       6.92870791       7.20096273      14.44745255        1       0.30191285       0.01214099       0.00052488      -0.00783623
Pt       9.70132146       7.20160583      14.45436276        1       0.30342034      -0.00556291       0.00321175      -0.01541841
Pt      12.47354720       7.20160583      14.45436276        1       0.30342034       0.00556291       0.00321175      -0.01541841
C        0.00000000      -0.00000000      16.61431924        0      -0.24156389      -0.00000000      -0.00000000      -3.20950217
O        0.00000000       0.00000000      17.61431924        0       0.76381962       0.00000000       0.00000000       3.23512571
