3
Properties=species:S:1:pos:R:3:energies:R:1:forces:R:3 energy=1.8788902166448032 free_energy=1.8788902166448032 pbc="F F F"
H       -0.42266669      -0.11993012       0.00000000       0.58318392       0.00206339       0.00436398      -0.00000000
H        1.21479727       0.33987437      -0.00000000       0.58303469      -0.00497108       0.00306159       0.00000000
O        0.20786942       0.78005575       0.00000000       0.71267161       0.00290768      -0.00742557      -0.00000000
