29
Lattice="8.3155757467538 0.0 0.0 4.1577878733769 7.201499843782543 0.0 0.0 0.0 24.526426110446664" Properties=species:S:1:pos:R:3:tags:I:1:energies:R:1:forces:R:3 energy=6.753939025617645 free_energy=6.753939025617645 stress="0.017218083066216795 -1.0008119110496089e-17 -3.1346219839829847e-18 -1.0008119110496089e-17 0.01721808306621687 -1.2789125005954796e-17 -3.1346219839829847e-18 -1.2789125005954796e-17 0.004142206712609812" pbc="T T F"
Pt       1.38592929       0.80016665      10.00000000        3       0.32002055       0.00000000       0.00000000       0.36712546
Pt       4.15778787       0.80016665      10.00000000        3       0.32002055       0.00001210      -0.00000191       0.36717415
Pt       6.92964646       0.80016665      10.00000000        3       0.32002055      -0.00001210      -0.00000191       0.36717415
Pt       2.77185858       3.20066660      10.00000000        3       0.32002055       0.00000439       0.00001143       0.36717415
Pt       5.54371716       3.20066660      10.00000000        3       0.32002055       0.00000000      -0.00000000       0.36719972
Pt       8.31557575       3.20066660      10.00000000        3       0.32002055      -0.00000439       0.00001143       0.36717415
Pt       4.15778787       5.60116655      10.00000000        3       0.32002055      -0.00000770      -0.00000952       0.36717415
Pt       6.92964646       5.60116655      10.00000000        3       0.32002055       0.00000770      -0.00000952       0.36717415
Pt       9.70150504       5.60116655      10.00000000        3       0.32002055       0.00000000      -0.00000000       0.36719727
Pt      -0.00000000       1.60033330      12.26321306        2       0.00383514      -0.00585174       0.00337851      -0.01945314
Pt       2.77185858       1.60033330      12.26321306        2       0.00383514       0.00585174       0.00337851      -0.01945314
Pt       5.54371716       1.60033330      12.26321306        2       0.00412896       0.00000000       0.00006995      -0.00074627
Pt       1.38592929       4.00083325      12.26321306        2       0.00409973      -0.00000000       0.00731107      -0.01041334
Pt       4.15778787       4.00083325      12.26321306        2       0.00412896       0.00006058      -0.00003498      -0.00074627
Pt       6.92964646       4.00083325      12.26321306        2       0.00412896      -0.00006058      -0.00003498      -0.00074627
Pt       2.77185858       6.40133319      12.26321306        2       0.00409973      -0.00633157      -0.00365553      -0.01041334
Pt       5.54371716       6.40133319      12.26321306        2       0.00383514      -0.00000000      -0.00675701      -0.01945314
Pt       8.31557575       6.40133319      12.26321306        2       0.00409973       0.00633157      -0.00365553      -0.01041334
Pt       0.00000000       0.00000000      14.52642611        1       0.21701988      -0.01313472      -0.00758333      -0.35156381
Pt       2.77185858       0.00000000      14.52642611        1       0.21701988       0.01313472      -0.00758333      -0.35156381
Pt       5.54371716       0.00000000      14.52642611        1       0.31964772       0.00000000       0.00000285      -0.36626603
Pt       1.38592929       2.40049995      14.52642611        1       0.21701988       0.00000000       0.01516667      -0.35156381
Pt       4.15778787       2.40049995      14.52642611        1       0.31741030       0.01022115       0.00590118      -0.36126351
Pt       6.92964646       2.40049995      14.52642611        1       0.31741030      -0.01022115       0.00590118      -0.36126351
Pt       2.77185858       4.80099990      14.52642611        1       0.31964772       0.00000247      -0.00000143      -0.36626603
Pt       5.54371716       4.80099990      14.52642611        1       0.31741030       0.00000000      -0.01180237      -0.36126351
Pt       8.31557575       4.80099990      14.52642611        1       0.31964772      -0.00000247      -0.00000143      -0.36626603
O        1.38592929       0.80016665      16.32642611        0      -0.10590197      -0.00000000       0.00000000      -8.86405671
H        1.38592929       0.80016665      17.29642611        0       1.38123088       0.00000000       0.00000000       8.88860763
