29
Lattice="8.3155757467538 0.0 0.0 4.1577878733769 7.201499843782543 0.0 0.0 0.0 24.526426110446664" Properties=species:S:1:pos:R:3:tags:I:1:energies:R:1:forces:R:3 energy=8.050895767179126 free_energy=8.050895767179126 stress="0.01679540345199039 3.4463500139599535e-18 -7.228695419664722e-18 3.4463500139599535e-18 0.01679540345199036 -2.0465760848328096e-17 -7.228695419664722e-18 -2.0465760848328096e-17 -0.008881651001352448" pbc="T T F"
Pt       1.38592929       0.80016665      10.00000000        3       0.32002055       0.00002910       0.00001680       0.36710109
Pt       4.15778787       0.80016665      10.00000000        3       0.32002055      -0.00000000      -0.00000028       0.36719694
Pt       6.92964646       0.80016665      10.00000000        3       0.32002055      -0.00002910       0.00001680       0.36710109
Pt       2.77185858       3.20066660      10.00000000        3       0.32002055      -0.00000024       0.00000014       0.36719694
Pt       5.54371716       3.20066660      10.00000000        3       0.32002055       0.00000024       0.00000014       0.36719694
Pt       8.31557575       3.20066660      10.00000000        3       0.32002055      -0.00000000       0.00001028       0.36718530
Pt       4.15778787       5.60116655      10.00000000        3       0.32002055      -0.00000000      -0.00003360       0.36710109
Pt       6.92964646       5.60116655      10.00000000        3       0.32002055       0.00000890      -0.00000514       0.36718530
Pt       9.70150504       5.60116655      10.00000000        3       0.32002055      -0.00000890      -0.00000514       0.36718530
Pt      -0.00000000       1.60033330      12.26321306        2       0.00383514      -0.00000000       0.04399064      -0.06373213
Pt       2.77185858       1.60033330      12.26321306        2       0.00409973       0.00138390       0.00079899      -0.00206653
Pt       5.54371716       1.60033330      12.26321306        2       0.00409973      -0.00138390       0.00079899      -0.00206653
Pt       1.38592929       4.00083325      12.26321306        2       0.00412896      -0.00040874       0.00023599      -0.00140467
Pt       4.15778787       4.00083325      12.26321306        2       0.00409973      -0.00000000      -0.00159799      -0.00206653
Pt       6.92964646       4.00083325      12.26321306        2       0.00412896       0.00040874       0.00023599      -0.00140467
Pt       2.77185858       6.40133319      12.26321306        2       0.00383514      -0.03809701      -0.02199532      -0.06373213
Pt       5.54371716       6.40133319      12.26321306        2       0.00383514       0.03809701      -0.02199532      -0.06373213
Pt       8.31557575       6.40133319      12.26321306        2       0.00412896      -0.00000000      -0.00047197      -0.00140467
Pt       0.00000000       0.00000000      14.52642611        1      -0.31756561       0.00000000       0.00000000      -9.80928173
Pt       2.77185858       0.00000000      14.52642611        1       0.31253034       0.09243339       0.00000386      -0.37635092
Pt       5.54371716       0.00000000      14.52642611        1       0.31253034      -0.09243339       0.00000386      -0.37635092
Pt       1.38592929       2.40049995      14.52642611        1       0.31253034       0.04622004       0.08004774      -0.37635092
Pt       4.15778787       2.40049995      14.52642611        1       0.31991475      -0.00000000      -0.00000000      -0.36696212
Pt       6.92964646       2.40049995      14.52642611        1       0.31253034      -0.04622004       0.08004774      -0.37635092
Pt       2.77185858       4.80099990      14.52642611        1       0.31253034      -0.04621335      -0.08005159      -0.37635092
Pt       5.54371716       4.80099990      14.52642611        1       0.31253034       0.04621335      -0.08005159      -0.37635092
Pt       8.31557575       4.80099990      14.52642611        1       0.31991475      -0.00000000      -0.00000000      -0.36696485
O        0.00000000       0.00000000      16.32642611        0       1.49134999      -0.00000000      -0.00000000      -0.70233389
H        0.00000000       0.00000000      17.29642611        0       1.44572344      -0.00000000       0.00000000      10.40080810
