29
Lattice="8.3155757467538 0.0 0.0 4.1577878733769 7.201499843782543 0.0 0.0 0.0 24.526426110446664" Properties=species:S:1:pos:R:3:tags:I:1:energies:R:1:forces:R:3 energy=6.788266112101468 free_energy=6.788266112101468 stress="0.016781412472094588 -5.876564160615183e-19 -3.48223633242285e-18 -5.876564160615183e-19 0.017220313297347967 1.2553478012593386e-06 -3.48223633242285e-18 1.2553478012593386e-06 0.0033189875851182323" pbc="T T F"
Pt       1.38592929       0.80016665      10.00000000        3       0.32002055       0.00000000       0.00002005       0.36712254
Pt       4.15778787       0.80016665      10.00000000        3       0.32002055       0.00001008       0.00000234       0.36717386
Pt       6.92964646       0.80016665      10.00000000        3       0.32002055      -0.00001008       0.00000234       0.36717386
Pt       2.77185858       3.20066660      10.00000000        3       0.32002055       0.00000041       0.00000520       0.36719135
Pt       5.54371716       3.20066660      10.00000000        3       0.32002055       0.00000000      -0.00000131       0.36719763
Pt       8.31557575       3.20066660      10.00000000        3       0.32002055      -0.00000041       0.00000520       0.36719135
Pt       4.15778787       5.60116655      10.00000000        3       0.32002055      -0.00001615      -0.00001617       0.36715143
Pt       6.92964646       5.60116655      10.00000000        3       0.32002055       0.00001615      -0.00001617       0.36715143
Pt       9.70150504       5.60116655      10.00000000        3       0.32002055       0.00000000      -0.00000149       0.36719647
Pt      -0.00000000       1.60033330      12.26321306        2       0.00397475      -0.00095022       0.01048119      -0.01696123
Pt       2.77185858       1.60033330      12.26321306        2       0.00397475       0.00095022       0.01048119      -0.01696123
Pt       5.54371716       1.60033330      12.26321306        2       0.00412896       0.00000000       0.00026213      -0.00061446
Pt       1.38592929       4.00083325      12.26321306        2       0.00412896       0.00000000       0.00116995      -0.00184573
Pt       4.15778787       4.00083325      12.26321306        2       0.00411784      -0.00089015      -0.00066701      -0.00178246
Pt       6.92964646       4.00083325      12.26321306        2       0.00411784       0.00089015      -0.00066701      -0.00178246
Pt       2.77185858       6.40133319      12.26321306        2       0.00407908      -0.00962088      -0.00555669      -0.01580363
Pt       5.54371716       6.40133319      12.26321306        2       0.00357302      -0.00000000      -0.00949199      -0.03032210
Pt       8.31557575       6.40133319      12.26321306        2       0.00407908       0.00962088      -0.00555669      -0.01580363
Pt       0.00000000       0.00000000      14.52642611        1       0.16526064      -0.22389769       0.00000540      -0.61803415
Pt       2.77185858       0.00000000      14.52642611        1       0.16526064       0.22389769       0.00000540      -0.61803415
Pt       5.54371716       0.00000000      14.52642611        1       0.31956590       0.00000000       0.00000127      -0.36614665
Pt       1.38592929       2.40049995      14.52642611        1       0.30192252       0.00000000       0.01419314      -0.35125500
Pt       4.15778787       2.40049995      14.52642611        1       0.31919834       0.00830416       0.01322808      -0.36532971
Pt       6.92964646       2.40049995      14.52642611        1       0.31919834      -0.00830416       0.01322808      -0.36532971
Pt       2.77185858       4.80099990      14.52642611        1       0.31919834      -0.00830061      -0.01322729      -0.36533419
Pt       5.54371716       4.80099990      14.52642611        1       0.30192252       0.00000000      -0.01420678      -0.35124109
Pt       8.31557575       4.80099990      14.52642611        1       0.31919834       0.00830061      -0.01322729      -0.36533419
O        1.38592929       0.00000000      16.32642611        0      -0.04649827      -0.00000000      -0.00046054      -8.54837795
H        1.38592929       0.00000000      17.29642611        0       1.38767960       0.00000000       0.00000546       9.11174381
