3
Properties=species:S:1:pos:R:3:energies:R:1:forces:R:3 energy=1.8792527839461983 free_energy=1.8792527839461983 pbc="F F F"
O       -0.00000000      -0.00000000       0.20668646       0.71491523      -0.00000000       0.00000000      -0.00753398
H       -0.00000000       0.82418290      -0.52075923       0.58216877      -0.00000000       0.00888348       0.00376699
H        0.00000000      -0.82418290      -0.52075923       0.58216877       0.00000000      -0.00888348       0.00376699
