27
Lattice="7.65796644025031 0.0 0.0 3.828983220125155 6.6319934785854535 0.0 0.0 0.0 28.168468943549097" Properties=species:S:1:pos:R:3:move_mask:L:1:tags:I:1:energies:R:1:forces:R:3 energy=6.390621010481107 free_energy=6.390621010481107 stress="0.00341806728008499 1.786797498015569e-17 -7.846784757051327e-18 1.786797498015569e-17 0.003418067280084861 -1.3078433713781433e-17 -7.846784757051327e-18 -1.3078433713781433e-17 -9.424875682170438e-05" pbc="T T F"
Cu       1.27632774       0.73688816      12.00000000  F        3       0.34821017       0.00000000      -0.00000000      -0.00674150
Cu       3.82898322       0.73688816      12.00000000  F        3       0.34821017      -0.00000000       0.00000000      -0.00674150
Cu       6.38163870       0.73688816      12.00000000  F        3       0.34821017      -0.00000000       0.00000000      -0.00674150
Cu       2.55265548       2.94755266      12.00000000  F        3       0.34821017      -0.00000000      -0.00000000      -0.00674150
Cu       5.10531096       2.94755266      12.00000000  F        3       0.34821017       0.00000000      -0.00000000      -0.00674150
Cu       7.65796644       2.94755266      12.00000000  F        3       0.34821017      -0.00000000      -0.00000000      -0.00674150
Cu       3.82898322       5.15821715      12.00000000  F        3       0.34821017      -0.00000000       0.00000000      -0.00674150
Cu       6.38163870       5.15821715      12.00000000  F        3       0.34821017       0.00000000       0.00000000      -0.00674150
Cu       8.93429418       5.15821715      12.00000000  F        3       0.34821017       0.00000000       0.00000000      -0.00674150
Cu       0.00000000       1.47377633      14.05507004  T        2       0.01362544      -0.00000000       0.00000000       0.00619337
Cu       2.55265548       1.47377633      14.05507004  T        2       0.01362544       0.00000000       0.00000000       0.00619337
Cu       5.10531096       1.47377633      14.05507004  T        2       0.01362544      -0.00000000       0.00000000       0.00619337
Cu       1.27632774       3.68444082      14.05507004  T        2       0.01362544      -0.00000000       0.00000000       0.00619337
Cu       3.82898322       3.68444082      14.05507004  T        2       0.01362544      -0.00000000       0.00000000       0.00619337
Cu       6.38163870       3.68444082      14.05507004  T        2       0.01362544       0.00000000       0.00000000       0.00619337
Cu       2.55265548       5.89510531      14.05507004  T        2       0.01362544      -0.00000000      -0.00000000       0.00619337
Cu       5.10531096       5.89510531      14.05507004  T        2       0.01362544       0.00000000      -0.00000000       0.00619337
Cu       7.65796644       5.89510531      14.05507004  T        2       0.01362544      -0.00000000      -0.00000000       0.00619337
Cu      -0.00000000      -0.00000000      16.11150247  T        1       0.34823340       0.00000000       0.00000000       0.00054813
Cu       2.55265548       0.00000000      16.11150247  T        1       0.34823340       0.00000000      -0.00000000       0.00054813
Cu       5.10531096      -0.00000000      16.11150247  T        1       0.34823340      -0.00000000       0.00000000       0.00054813
Cu       1.27632774       2.21066449      16.11150247  T        1       0.34823340       0.00000000       0.00000000       0.00054813
Cu       3.82898322       2.21066449      16.11150247  T        1       0.34823340       0.00000000       0.00000000       0.00054813
Cu       6.38163870       2.21066449      16.11150247  T        1       0.34823340      -0.00000000      -0.00000000       0.00054813
Cu       2.55265548       4.42132899      16.11150247  T        1       0.34823340       0.00000000      -0.00000000       0.00054813
Cu       5.10531096       4.42132899      16.11150247  T        1       0.34823340      -0.00000000      -0.00000000       0.00054813
Cu       7.65796644       4.42132899      16.11150247  T        1       0.34823340      -0.00000000       0.00000000       0.00054813
