8
Lattice="5.105310960166873 0.0 0.0 2.5526554800834367 4.421328985723636 0.0 0.0 0.0 22.08423447177455" Properties=species:S:1:pos:R:3:tags:I:1:energies:R:1:forces:R:3 energy=2.865511314995711 free_energy=2.865511314995711 stress="0.003365803735043925 2.1204020971131434e-17 7.58258005681681e-18 2.1204020971131434e-17 0.0033658037350439967 2.61302687533863e-18 7.58258005681681e-18 2.61302687533863e-18 -0.00021054602346336066" pbc="T T F"
Cu       0.00000000       1.47377633      10.01923299        2       0.35818891       0.00000000       0.00000000      -0.01282590
Cu       2.55265548       1.47377633      10.01923299        2       0.35818891      -0.00000000      -0.00000000      -0.01282590
Cu       1.27632774       3.68444082      10.01923299        2       0.35818891      -0.00000000      -0.00000000      -0.01282590
Cu       3.82898322       3.68444082      10.01923299        2       0.35818891      -0.00000000       0.00000000      -0.01282590
Cu       0.00000000       0.00000000      12.06500148        1       0.35818891       0.00000000       0.00000000       0.01282590
Cu       2.55265548      -0.00000000      12.06500148        1       0.35818891      -0.00000000       0.00000000       0.01282590
Cu       1.27632774       2.21066449      12.06500148        1       0.35818891       0.00000000      -0.00000000       0.01282590
Cu       3.82898322       2.21066449      12.06500148        1       0.35818891      -0.00000000      -0.00000000       0.01282590
