3
Properties=species:S:1:pos:R:3:energies:R:1:forces:R:3 energy=1.8788845147284392 free_energy=1.8788845147284392 pbc="F F F"
H       -0.00000000       0.16735732      -0.88156798       0.58324681      -0.00000000       0.00227599       0.00388839
O       -0.00000000       0.68650887       0.08692708       0.71184628       0.00000000      -0.00297221      -0.00352295
H       -0.00000000      -0.15386618       0.79464089       0.58379142      -0.00000000       0.00069622      -0.00036544
